<?xml version="1.0" encoding="UTF-8"?>

<!-- generated on 04 أبر, 2021 01:21:41 م by Eclipse SUMO GUI Version v1_8_0+0922-7b2bbb9a60
<configuration xmlns:xsi="http://www.w3.org/2001/XMLSchema-instance" xsi:noNamespaceSchemaLocation="http://sumo.dlr.de/xsd/sumoConfiguration.xsd">

    <input>
        <net-file value="data/cross.net.xml"/>
        <route-files value="data/cross.rou.xml"/>
        <additional-files value="data/cross.det.xml"/>
    </input>

    <output>
        <tripinfo-output value="tripinfo.xml"/>
    </output>

    <time>
        <begin value="0"/>
    </time>

    <report>
        <verbose value="true"/>
        <no-step-log value="true"/>
    </report>

    <traci_server>
        <remote-port value="57155"/>
    </traci_server>

</configuration>
-->

<tripinfos xmlns:xsi="http://www.w3.org/2001/XMLSchema-instance" xsi:noNamespaceSchemaLocation="http://sumo.dlr.de/xsd/tripinfo_file.xsd">
    <tripinfo id="left_3" depart="1.00" departLane="54o_0" departPos="6.00" departSpeed="0.00" departDelay="0.00" arrival="86.00" arrivalLane="51i_0" arrivalPos="6.00" arrivalSpeed="12.35" duration="85.00" routeLength="1002.23" waitingTime="0.00" waitingCount="0" stopTime="0.00" timeLoss="19.36" rerouteNo="0" devices="tripinfo_left_3" vType="typeNS" speedFactor="1.08" vaporized=""/>
    <tripinfo id="down_4" depart="1.00" departLane="53o_0" departPos="6.00" departSpeed="0.00" departDelay="0.00" arrival="87.00" arrivalLane="52i_0" arrivalPos="6.00" arrivalSpeed="11.86" duration="86.00" routeLength="1002.23" waitingTime="0.00" waitingCount="0" stopTime="0.00" timeLoss="17.10" rerouteNo="0" devices="tripinfo_down_4" vType="typeNS" speedFactor="1.03" vaporized=""/>
    <tripinfo id="left_0" depart="0.00" departLane="52o_0" departPos="5.10" departSpeed="0.00" departDelay="0.00" arrival="91.00" arrivalLane="51i_0" arrivalPos="6.00" arrivalSpeed="12.19" duration="91.00" routeLength="1014.90" waitingTime="0.00" waitingCount="0" stopTime="0.00" timeLoss="17.98" rerouteNo="0" devices="tripinfo_left_0" vType="typeWE" speedFactor="1.06" vaporized=""/>
    <tripinfo id="left_10" depart="12.00" departLane="54o_0" departPos="6.00" departSpeed="0.00" departDelay="7.00" arrival="97.00" arrivalLane="51i_0" arrivalPos="6.00" arrivalSpeed="12.72" duration="85.00" routeLength="1002.23" waitingTime="0.00" waitingCount="0" stopTime="0.00" timeLoss="20.41" rerouteNo="0" devices="tripinfo_left_10" vType="typeNS" speedFactor="1.09" vaporized=""/>
    <tripinfo id="down_7" depart="7.00" departLane="54o_0" departPos="6.00" departSpeed="0.00" departDelay="4.00" arrival="104.00" arrivalLane="53i_0" arrivalPos="6.00" arrivalSpeed="10.07" duration="97.00" routeLength="1014.00" waitingTime="0.00" waitingCount="0" stopTime="0.00" timeLoss="16.25" rerouteNo="0" devices="tripinfo_down_7" vType="typeNS" speedFactor="0.89" vaporized=""/>
    <tripinfo id="down_13" depart="19.00" departLane="54o_0" departPos="6.00" departSpeed="0.00" departDelay="12.00" arrival="106.00" arrivalLane="53i_0" arrivalPos="6.00" arrivalSpeed="10.58" duration="87.00" routeLength="1014.00" waitingTime="0.00" waitingCount="0" stopTime="0.00" timeLoss="23.31" rerouteNo="0" devices="tripinfo_down_13" vType="typeNS" speedFactor="1.12" vaporized=""/>
    <tripinfo id="right_5" depart="6.00" departLane="53o_0" departPos="6.00" departSpeed="0.00" departDelay="4.00" arrival="108.00" arrivalLane="54i_0" arrivalPos="6.00" arrivalSpeed="10.26" duration="102.00" routeLength="1014.00" waitingTime="0.00" waitingCount="0" stopTime="0.00" timeLoss="15.91" rerouteNo="0" devices="tripinfo_right_5" vType="typeNS" speedFactor="0.83" vaporized=""/>
    <tripinfo id="right_8" depart="13.00" departLane="53o_0" departPos="6.00" departSpeed="0.00" departDelay="10.00" arrival="110.00" arrivalLane="54i_0" arrivalPos="6.00" arrivalSpeed="10.26" duration="97.00" routeLength="1014.00" waitingTime="0.00" waitingCount="0" stopTime="0.00" timeLoss="20.66" rerouteNo="0" devices="tripinfo_right_8" vType="typeNS" speedFactor="0.94" vaporized=""/>
    <tripinfo id="right_14" depart="19.00" departLane="53o_0" departPos="6.00" departSpeed="0.00" departDelay="11.00" arrival="112.00" arrivalLane="54i_0" arrivalPos="6.00" arrivalSpeed="10.84" duration="93.00" routeLength="1014.00" waitingTime="0.00" waitingCount="0" stopTime="0.00" timeLoss="20.56" rerouteNo="0" devices="tripinfo_right_14" vType="typeNS" speedFactor="0.99" vaporized=""/>
    <tripinfo id="left_19" depart="31.00" departLane="54o_0" departPos="6.00" departSpeed="0.00" departDelay="19.00" arrival="112.00" arrivalLane="51i_0" arrivalPos="6.00" arrivalSpeed="13.16" duration="81.00" routeLength="1002.23" waitingTime="0.00" waitingCount="0" stopTime="0.00" timeLoss="19.87" rerouteNo="0" devices="tripinfo_left_19" vType="typeNS" speedFactor="1.16" vaporized=""/>
    <tripinfo id="right_28" depart="31.00" departLane="53o_0" departPos="6.00" departSpeed="0.00" departDelay="14.00" arrival="114.00" arrivalLane="54i_0" arrivalPos="6.00" arrivalSpeed="11.97" duration="83.00" routeLength="1014.00" waitingTime="0.00" waitingCount="0" stopTime="0.00" timeLoss="19.59" rerouteNo="0" devices="tripinfo_right_28" vType="typeNS" speedFactor="1.13" vaporized=""/>
    <tripinfo id="down_17" depart="25.00" departLane="54o_0" departPos="6.00" departSpeed="0.00" departDelay="14.00" arrival="118.00" arrivalLane="53i_0" arrivalPos="6.00" arrivalSpeed="10.73" duration="93.00" routeLength="1014.00" waitingTime="0.00" waitingCount="0" stopTime="0.00" timeLoss="16.74" rerouteNo="0" devices="tripinfo_down_17" vType="typeNS" speedFactor="0.94" vaporized=""/>
    <tripinfo id="down_31" depart="37.00" departLane="53o_0" departPos="6.00" departSpeed="0.00" departDelay="17.00" arrival="118.00" arrivalLane="52i_0" arrivalPos="6.00" arrivalSpeed="13.28" duration="81.00" routeLength="1002.23" waitingTime="0.00" waitingCount="0" stopTime="0.00" timeLoss="19.49" rerouteNo="0" devices="tripinfo_down_31" vType="typeNS" speedFactor="1.15" vaporized=""/>
    <tripinfo id="right_25" depart="25.00" departLane="53o_0" departPos="6.00" departSpeed="0.00" departDelay="9.00" arrival="122.00" arrivalLane="54i_0" arrivalPos="6.00" arrivalSpeed="10.62" duration="97.00" routeLength="1014.00" waitingTime="0.00" waitingCount="0" stopTime="0.00" timeLoss="14.89" rerouteNo="0" devices="tripinfo_right_25" vType="typeNS" speedFactor="0.87" vaporized=""/>
    <tripinfo id="down_37" depart="43.00" departLane="53o_0" departPos="6.00" departSpeed="0.00" departDelay="19.00" arrival="123.00" arrivalLane="52i_0" arrivalPos="6.00" arrivalSpeed="13.48" duration="80.00" routeLength="1002.23" waitingTime="0.00" waitingCount="0" stopTime="0.00" timeLoss="20.16" rerouteNo="0" devices="tripinfo_down_37" vType="typeNS" speedFactor="1.18" vaporized=""/>
    <tripinfo id="left_11" depart="5.00" departLane="51o_0" departPos="5.10" departSpeed="0.00" departDelay="0.00" arrival="125.00" arrivalLane="53i_0" arrivalPos="6.00" arrivalSpeed="11.66" duration="120.00" routeLength="1003.13" waitingTime="19.00" waitingCount="1" stopTime="0.00" timeLoss="45.83" rerouteNo="0" devices="tripinfo_left_11" vType="typeWE" speedFactor="1.03" vaporized=""/>
    <tripinfo id="down_20" depart="37.00" departLane="54o_0" departPos="6.00" departSpeed="0.00" departDelay="24.00" arrival="127.00" arrivalLane="53i_0" arrivalPos="6.00" arrivalSpeed="11.91" duration="90.00" routeLength="1014.00" waitingTime="0.00" waitingCount="0" stopTime="0.00" timeLoss="19.60" rerouteNo="0" devices="tripinfo_down_20" vType="typeNS" speedFactor="1.02" vaporized=""/>
    <tripinfo id="down_1" depart="5.00" departLane="52o_0" departPos="6.00" departSpeed="0.00" departDelay="5.00" arrival="130.00" arrivalLane="54i_0" arrivalPos="6.00" arrivalSpeed="11.24" duration="125.00" routeLength="1002.23" waitingTime="22.00" waitingCount="1" stopTime="0.00" timeLoss="49.33" rerouteNo="0" devices="tripinfo_down_1" vType="typeNS" speedFactor="0.94" vaporized=""/>
    <tripinfo id="down_6" depart="16.00" departLane="52o_0" departPos="6.00" departSpeed="0.00" departDelay="14.00" arrival="131.00" arrivalLane="54i_0" arrivalPos="6.00" arrivalSpeed="11.36" duration="115.00" routeLength="1002.23" waitingTime="14.00" waitingCount="1" stopTime="0.00" timeLoss="47.68" rerouteNo="0" devices="tripinfo_down_6" vType="typeNS" speedFactor="1.05" vaporized=""/>
    <tripinfo id="right_38" depart="49.00" departLane="53o_0" departPos="6.00" departSpeed="0.00" departDelay="24.00" arrival="133.00" arrivalLane="54i_0" arrivalPos="6.00" arrivalSpeed="11.74" duration="84.00" routeLength="1014.00" waitingTime="0.00" waitingCount="0" stopTime="0.00" timeLoss="19.20" rerouteNo="0" devices="tripinfo_right_38" vType="typeNS" speedFactor="1.10" vaporized=""/>
    <tripinfo id="left_23" depart="43.00" departLane="54o_0" departPos="6.00" departSpeed="0.00" departDelay="28.00" arrival="139.00" arrivalLane="51i_0" arrivalPos="6.00" arrivalSpeed="10.15" duration="96.00" routeLength="1002.23" waitingTime="0.00" waitingCount="0" stopTime="0.00" timeLoss="16.41" rerouteNo="0" devices="tripinfo_left_23" vType="typeNS" speedFactor="0.89" vaporized=""/>
    <tripinfo id="right_45" depart="55.00" departLane="53o_0" departPos="6.00" departSpeed="0.00" departDelay="26.00" arrival="140.00" arrivalLane="54i_0" arrivalPos="6.00" arrivalSpeed="12.42" duration="85.00" routeLength="1014.00" waitingTime="0.00" waitingCount="0" stopTime="0.00" timeLoss="18.80" rerouteNo="0" devices="tripinfo_right_45" vType="typeNS" speedFactor="1.09" vaporized=""/>
    <tripinfo id="down_29" depart="49.00" departLane="54o_0" departPos="6.00" departSpeed="0.00" departDelay="30.00" arrival="142.00" arrivalLane="53i_0" arrivalPos="6.00" arrivalSpeed="10.55" duration="93.00" routeLength="1014.00" waitingTime="0.00" waitingCount="0" stopTime="0.00" timeLoss="16.23" rerouteNo="0" devices="tripinfo_down_29" vType="typeNS" speedFactor="0.93" vaporized=""/>
    <tripinfo id="left_36" depart="55.00" departLane="54o_0" departPos="6.00" departSpeed="0.00" departDelay="32.00" arrival="146.00" arrivalLane="51i_0" arrivalPos="6.00" arrivalSpeed="11.17" duration="91.00" routeLength="1002.23" waitingTime="0.00" waitingCount="0" stopTime="0.00" timeLoss="18.40" rerouteNo="0" devices="tripinfo_left_36" vType="typeNS" speedFactor="0.97" vaporized=""/>
    <tripinfo id="right_51" depart="67.00" departLane="53o_0" departPos="6.00" departSpeed="0.00" departDelay="33.00" arrival="149.00" arrivalLane="54i_0" arrivalPos="6.00" arrivalSpeed="13.28" duration="82.00" routeLength="1014.00" waitingTime="0.00" waitingCount="0" stopTime="0.00" timeLoss="20.41" rerouteNo="0" devices="tripinfo_right_51" vType="typeNS" speedFactor="1.17" vaporized=""/>
    <tripinfo id="down_40" depart="62.00" departLane="54o_0" departPos="6.00" departSpeed="0.00" departDelay="35.00" arrival="151.00" arrivalLane="53i_0" arrivalPos="6.00" arrivalSpeed="11.79" duration="89.00" routeLength="1014.00" waitingTime="0.00" waitingCount="0" stopTime="0.00" timeLoss="19.49" rerouteNo="0" devices="tripinfo_down_40" vType="typeNS" speedFactor="1.03" vaporized=""/>
    <tripinfo id="left_42" depart="68.00" departLane="54o_0" departPos="6.00" departSpeed="0.00" departDelay="40.00" arrival="152.00" arrivalLane="51i_0" arrivalPos="6.00" arrivalSpeed="12.54" duration="84.00" routeLength="1002.23" waitingTime="0.00" waitingCount="0" stopTime="0.00" timeLoss="18.85" rerouteNo="0" devices="tripinfo_left_42" vType="typeNS" speedFactor="1.09" vaporized=""/>
    <tripinfo id="right_12" depart="10.00" departLane="51o_0" departPos="5.10" departSpeed="0.00" departDelay="3.00" arrival="153.00" arrivalLane="52i_0" arrivalPos="6.00" arrivalSpeed="12.06" duration="143.00" routeLength="1014.90" waitingTime="42.00" waitingCount="1" stopTime="0.00" timeLoss="68.91" rerouteNo="0" devices="tripinfo_right_12" vType="typeWE" speedFactor="1.05" vaporized=""/>
    <tripinfo id="down_49" depart="61.00" departLane="53o_0" departPos="6.00" departSpeed="0.00" departDelay="28.00" arrival="160.00" arrivalLane="52i_0" arrivalPos="6.00" arrivalSpeed="10.02" duration="99.00" routeLength="1002.23" waitingTime="0.00" waitingCount="0" stopTime="0.00" timeLoss="16.19" rerouteNo="0" devices="tripinfo_down_49" vType="typeNS" speedFactor="0.85" vaporized=""/>
    <tripinfo id="left_46" depart="74.00" departLane="54o_0" departPos="6.00" departSpeed="0.00" departDelay="43.00" arrival="163.00" arrivalLane="51i_0" arrivalPos="6.00" arrivalSpeed="11.64" duration="89.00" routeLength="1002.23" waitingTime="0.00" waitingCount="0" stopTime="0.00" timeLoss="17.62" rerouteNo="0" devices="tripinfo_left_46" vType="typeNS" speedFactor="1.00" vaporized=""/>
    <tripinfo id="left_2" depart="10.00" departLane="52o_0" departPos="5.10" departSpeed="0.00" departDelay="9.00" arrival="166.00" arrivalLane="51i_0" arrivalPos="6.00" arrivalSpeed="12.29" duration="156.00" routeLength="1014.90" waitingTime="52.00" waitingCount="1" stopTime="0.00" timeLoss="80.37" rerouteNo="0" devices="tripinfo_left_2" vType="typeWE" speedFactor="1.01" vaporized=""/>
    <tripinfo id="right_15" depart="16.00" departLane="51o_0" departPos="5.10" departSpeed="0.00" departDelay="5.00" arrival="169.00" arrivalLane="52i_0" arrivalPos="6.00" arrivalSpeed="10.87" duration="153.00" routeLength="1014.90" waitingTime="39.00" waitingCount="2" stopTime="0.00" timeLoss="73.35" rerouteNo="0" devices="tripinfo_right_15" vType="typeWE" speedFactor="0.93" vaporized=""/>
    <tripinfo id="left_18" depart="22.00" departLane="51o_0" departPos="5.10" departSpeed="0.00" departDelay="11.00" arrival="170.00" arrivalLane="53i_0" arrivalPos="6.00" arrivalSpeed="10.71" duration="148.00" routeLength="1003.13" waitingTime="36.00" waitingCount="2" stopTime="0.00" timeLoss="69.58" rerouteNo="0" devices="tripinfo_left_18" vType="typeWE" speedFactor="0.94" vaporized=""/>
    <tripinfo id="down_62" depart="73.00" departLane="53o_0" departPos="6.00" departSpeed="0.00" departDelay="32.00" arrival="171.00" arrivalLane="52i_0" arrivalPos="6.00" arrivalSpeed="11.19" duration="98.00" routeLength="1002.23" waitingTime="0.00" waitingCount="0" stopTime="0.00" timeLoss="28.21" rerouteNo="0" devices="tripinfo_down_62" vType="typeNS" speedFactor="1.02" vaporized=""/>
    <tripinfo id="right_66" depart="79.00" departLane="53o_0" departPos="6.00" departSpeed="0.00" departDelay="35.00" arrival="174.00" arrivalLane="54i_0" arrivalPos="6.00" arrivalSpeed="10.38" duration="95.00" routeLength="1014.00" waitingTime="0.00" waitingCount="0" stopTime="0.00" timeLoss="16.03" rerouteNo="0" devices="tripinfo_right_66" vType="typeNS" speedFactor="0.91" vaporized=""/>
    <tripinfo id="left_52" depart="85.00" departLane="54o_0" departPos="6.00" departSpeed="0.00" departDelay="51.00" arrival="175.00" arrivalLane="51i_0" arrivalPos="6.00" arrivalSpeed="11.62" duration="90.00" routeLength="1002.23" waitingTime="0.00" waitingCount="0" stopTime="0.00" timeLoss="20.12" rerouteNo="0" devices="tripinfo_left_52" vType="typeNS" speedFactor="1.02" vaporized=""/>
    <tripinfo id="down_72" depart="85.00" departLane="53o_0" departPos="6.00" departSpeed="0.00" departDelay="35.00" arrival="177.00" arrivalLane="52i_0" arrivalPos="6.00" arrivalSpeed="10.83" duration="92.00" routeLength="1002.23" waitingTime="0.00" waitingCount="0" stopTime="0.00" timeLoss="16.82" rerouteNo="0" devices="tripinfo_down_72" vType="typeNS" speedFactor="0.94" vaporized=""/>
    <tripinfo id="right_76" depart="91.00" departLane="53o_0" departPos="6.00" departSpeed="0.00" departDelay="39.00" arrival="178.00" arrivalLane="54i_0" arrivalPos="6.00" arrivalSpeed="12.00" duration="87.00" routeLength="1014.00" waitingTime="0.00" waitingCount="0" stopTime="0.00" timeLoss="17.24" rerouteNo="0" devices="tripinfo_right_76" vType="typeNS" speedFactor="1.03" vaporized=""/>
    <tripinfo id="down_50" depart="80.00" departLane="54o_0" departPos="6.00" departSpeed="0.00" departDelay="46.00" arrival="179.00" arrivalLane="53i_0" arrivalPos="6.00" arrivalSpeed="10.37" duration="99.00" routeLength="1014.00" waitingTime="0.00" waitingCount="0" stopTime="0.00" timeLoss="15.04" rerouteNo="0" devices="tripinfo_down_50" vType="typeNS" speedFactor="0.85" vaporized=""/>
    <tripinfo id="down_54" depart="92.00" departLane="54o_0" departPos="6.00" departSpeed="0.00" departDelay="56.00" arrival="181.00" arrivalLane="53i_0" arrivalPos="6.00" arrivalSpeed="11.00" duration="89.00" routeLength="1014.00" waitingTime="0.00" waitingCount="0" stopTime="0.00" timeLoss="17.47" rerouteNo="0" devices="tripinfo_down_54" vType="typeNS" speedFactor="1.00" vaporized=""/>
    <tripinfo id="left_61" depart="104.00" departLane="54o_0" departPos="6.00" departSpeed="0.00" departDelay="64.00" arrival="185.00" arrivalLane="51i_0" arrivalPos="6.00" arrivalSpeed="12.83" duration="81.00" routeLength="1002.23" waitingTime="0.00" waitingCount="0" stopTime="0.00" timeLoss="17.96" rerouteNo="0" devices="tripinfo_left_61" vType="typeNS" speedFactor="1.12" vaporized=""/>
    <tripinfo id="right_78" depart="97.00" departLane="53o_0" departPos="6.00" departSpeed="0.00" departDelay="44.00" arrival="185.00" arrivalLane="54i_0" arrivalPos="6.00" arrivalSpeed="11.73" duration="88.00" routeLength="1014.00" waitingTime="0.00" waitingCount="0" stopTime="0.00" timeLoss="16.66" rerouteNo="0" devices="tripinfo_right_78" vType="typeNS" speedFactor="1.01" vaporized=""/>
    <tripinfo id="down_84" depart="110.00" departLane="53o_0" departPos="6.00" departSpeed="0.00" departDelay="52.00" arrival="190.00" arrivalLane="52i_0" arrivalPos="6.00" arrivalSpeed="13.08" duration="80.00" routeLength="1002.23" waitingTime="0.00" waitingCount="0" stopTime="0.00" timeLoss="18.55" rerouteNo="0" devices="tripinfo_down_84" vType="typeNS" speedFactor="1.15" vaporized=""/>
    <tripinfo id="left_24" depart="27.00" departLane="51o_0" departPos="5.10" departSpeed="0.00" departDelay="12.00" arrival="191.00" arrivalLane="53i_0" arrivalPos="6.00" arrivalSpeed="10.20" duration="164.00" routeLength="1003.13" waitingTime="37.00" waitingCount="2" stopTime="0.00" timeLoss="78.14" rerouteNo="0" devices="tripinfo_left_24" vType="typeWE" speedFactor="0.83" vaporized=""/>
    <tripinfo id="left_26" depart="32.00" departLane="51o_0" departPos="5.10" departSpeed="0.00" departDelay="16.00" arrival="192.00" arrivalLane="53i_0" arrivalPos="6.00" arrivalSpeed="10.09" duration="160.00" routeLength="1003.13" waitingTime="34.00" waitingCount="2" stopTime="0.00" timeLoss="81.16" rerouteNo="0" devices="tripinfo_left_26" vType="typeWE" speedFactor="0.92" vaporized=""/>
    <tripinfo id="right_81" depart="104.00" departLane="53o_0" departPos="6.00" departSpeed="0.00" departDelay="50.00" arrival="193.00" arrivalLane="54i_0" arrivalPos="6.00" arrivalSpeed="11.18" duration="89.00" routeLength="1014.00" waitingTime="0.00" waitingCount="0" stopTime="0.00" timeLoss="17.20" rerouteNo="0" devices="tripinfo_right_81" vType="typeNS" speedFactor="1.00" vaporized=""/>
    <tripinfo id="down_56" depart="98.00" departLane="54o_0" departPos="6.00" departSpeed="0.00" departDelay="61.00" arrival="194.00" arrivalLane="53i_0" arrivalPos="6.00" arrivalSpeed="10.19" duration="96.00" routeLength="1014.00" waitingTime="0.00" waitingCount="0" stopTime="0.00" timeLoss="16.53" rerouteNo="0" devices="tripinfo_down_56" vType="typeNS" speedFactor="0.90" vaporized=""/>
    <tripinfo id="left_43" depart="57.00" departLane="51o_0" departPos="5.10" departSpeed="0.00" departDelay="29.00" arrival="197.00" arrivalLane="53i_0" arrivalPos="6.00" arrivalSpeed="11.92" duration="140.00" routeLength="1003.13" waitingTime="19.00" waitingCount="3" stopTime="0.00" timeLoss="66.73" rerouteNo="0" devices="tripinfo_left_43" vType="typeWE" speedFactor="1.04" vaporized=""/>
    <tripinfo id="down_33" depart="49.00" departLane="52o_0" departPos="6.00" departSpeed="0.00" departDelay="28.00" arrival="201.00" arrivalLane="54i_0" arrivalPos="6.00" arrivalSpeed="13.33" duration="152.00" routeLength="1002.23" waitingTime="53.00" waitingCount="2" stopTime="0.00" timeLoss="91.87" rerouteNo="0" devices="tripinfo_down_33" vType="typeNS" speedFactor="1.17" vaporized=""/>
    <tripinfo id="down_70" depart="114.00" departLane="54o_0" departPos="6.00" departSpeed="0.00" departDelay="66.00" arrival="204.00" arrivalLane="53i_0" arrivalPos="6.00" arrivalSpeed="12.58" duration="90.00" routeLength="1014.00" waitingTime="0.00" waitingCount="0" stopTime="0.00" timeLoss="19.76" rerouteNo="0" devices="tripinfo_down_70" vType="typeNS" speedFactor="1.02" vaporized=""/>
    <tripinfo id="left_21" depart="32.00" departLane="52o_0" departPos="5.10" departSpeed="0.00" departDelay="18.00" arrival="205.00" arrivalLane="51i_0" arrivalPos="6.00" arrivalSpeed="11.65" duration="173.00" routeLength="1014.90" waitingTime="65.00" waitingCount="1" stopTime="0.00" timeLoss="97.29" rerouteNo="0" devices="tripinfo_left_21" vType="typeWE" speedFactor="1.01" vaporized=""/>
    <tripinfo id="down_86" depart="118.00" departLane="53o_0" departPos="6.00" departSpeed="0.00" departDelay="57.00" arrival="205.00" arrivalLane="52i_0" arrivalPos="6.00" arrivalSpeed="11.32" duration="87.00" routeLength="1002.23" waitingTime="0.00" waitingCount="0" stopTime="0.00" timeLoss="16.31" rerouteNo="0" devices="tripinfo_down_86" vType="typeNS" speedFactor="1.00" vaporized=""/>
    <tripinfo id="down_22" depart="38.00" departLane="52o_0" departPos="6.00" departSpeed="0.00" departDelay="24.00" arrival="207.00" arrivalLane="54i_0" arrivalPos="6.00" arrivalSpeed="11.40" duration="169.00" routeLength="1002.23" waitingTime="64.00" waitingCount="1" stopTime="0.00" timeLoss="96.29" rerouteNo="0" devices="tripinfo_down_22" vType="typeNS" speedFactor="0.98" vaporized=""/>
    <tripinfo id="down_35" depart="55.00" departLane="52o_0" departPos="6.00" departSpeed="0.00" departDelay="33.00" arrival="209.00" arrivalLane="54i_0" arrivalPos="6.00" arrivalSpeed="12.06" duration="154.00" routeLength="1002.23" waitingTime="49.00" waitingCount="2" stopTime="0.00" timeLoss="84.69" rerouteNo="0" devices="tripinfo_down_35" vType="typeNS" speedFactor="1.02" vaporized=""/>
    <tripinfo id="left_9" depart="22.00" departLane="52o_0" departPos="5.10" departSpeed="0.00" departDelay="17.00" arrival="210.00" arrivalLane="51i_0" arrivalPos="6.00" arrivalSpeed="9.75" duration="188.00" routeLength="1014.90" waitingTime="73.00" waitingCount="2" stopTime="0.00" timeLoss="104.49" rerouteNo="0" devices="tripinfo_left_9" vType="typeWE" speedFactor="0.86" vaporized=""/>
    <tripinfo id="right_27" depart="37.00" departLane="51o_0" departPos="5.10" departSpeed="0.00" departDelay="20.00" arrival="210.00" arrivalLane="52i_0" arrivalPos="6.00" arrivalSpeed="11.77" duration="173.00" routeLength="1014.90" waitingTime="62.00" waitingCount="2" stopTime="0.00" timeLoss="94.48" rerouteNo="0" devices="tripinfo_right_27" vType="typeWE" speedFactor="0.95" vaporized=""/>
    <tripinfo id="down_71" depart="122.00" departLane="54o_0" departPos="6.00" departSpeed="0.00" departDelay="73.00" arrival="212.00" arrivalLane="53i_0" arrivalPos="6.00" arrivalSpeed="11.21" duration="90.00" routeLength="1014.00" waitingTime="0.00" waitingCount="0" stopTime="0.00" timeLoss="16.42" rerouteNo="0" devices="tripinfo_down_71" vType="typeNS" speedFactor="0.97" vaporized=""/>
    <tripinfo id="left_82" depart="127.00" departLane="54o_0" departPos="6.00" departSpeed="0.00" departDelay="70.00" arrival="215.00" arrivalLane="51i_0" arrivalPos="6.00" arrivalSpeed="11.63" duration="88.00" routeLength="1002.23" waitingTime="0.00" waitingCount="0" stopTime="0.00" timeLoss="18.16" rerouteNo="0" devices="tripinfo_left_82" vType="typeNS" speedFactor="1.02" vaporized=""/>
    <tripinfo id="right_88" depart="127.00" departLane="53o_0" departPos="6.00" departSpeed="0.00" departDelay="65.00" arrival="215.00" arrivalLane="54i_0" arrivalPos="6.00" arrivalSpeed="11.76" duration="88.00" routeLength="1014.00" waitingTime="0.00" waitingCount="0" stopTime="0.00" timeLoss="16.55" rerouteNo="0" devices="tripinfo_right_88" vType="typeNS" speedFactor="1.01" vaporized=""/>
    <tripinfo id="down_89" depart="133.00" departLane="53o_0" departPos="6.00" departSpeed="0.00" departDelay="71.00" arrival="221.00" arrivalLane="52i_0" arrivalPos="6.00" arrivalSpeed="11.82" duration="88.00" routeLength="1002.23" waitingTime="0.00" waitingCount="0" stopTime="0.00" timeLoss="18.43" rerouteNo="0" devices="tripinfo_down_89" vType="typeNS" speedFactor="1.02" vaporized=""/>
    <tripinfo id="down_44" depart="66.00" departLane="52o_0" departPos="6.00" departSpeed="0.00" departDelay="38.00" arrival="224.00" arrivalLane="54i_0" arrivalPos="6.00" arrivalSpeed="12.21" duration="158.00" routeLength="1002.23" waitingTime="40.00" waitingCount="3" stopTime="0.00" timeLoss="90.21" rerouteNo="0" devices="tripinfo_down_44" vType="typeNS" speedFactor="1.04" vaporized=""/>
    <tripinfo id="down_91" depart="133.00" departLane="54o_0" departPos="6.00" departSpeed="0.00" departDelay="70.00" arrival="229.00" arrivalLane="53i_0" arrivalPos="6.00" arrivalSpeed="10.57" duration="96.00" routeLength="1014.00" waitingTime="0.00" waitingCount="0" stopTime="0.00" timeLoss="15.63" rerouteNo="0" devices="tripinfo_down_91" vType="typeNS" speedFactor="0.89" vaporized=""/>
    <tripinfo id="down_39" depart="60.00" departLane="52o_0" departPos="6.00" departSpeed="0.00" departDelay="35.00" arrival="230.00" arrivalLane="54i_0" arrivalPos="6.00" arrivalSpeed="11.28" duration="170.00" routeLength="1002.23" waitingTime="46.00" waitingCount="3" stopTime="0.00" timeLoss="91.24" rerouteNo="0" devices="tripinfo_down_39" vType="typeNS" speedFactor="0.90" vaporized=""/>
    <tripinfo id="down_53" depart="77.00" departLane="52o_0" departPos="6.00" departSpeed="0.00" departDelay="42.00" arrival="231.00" arrivalLane="54i_0" arrivalPos="6.00" arrivalSpeed="11.19" duration="154.00" routeLength="1002.23" waitingTime="31.00" waitingCount="2" stopTime="0.00" timeLoss="89.60" rerouteNo="0" devices="tripinfo_down_53" vType="typeNS" speedFactor="1.10" vaporized=""/>
    <tripinfo id="down_98" depart="146.00" departLane="54o_0" departPos="6.00" departSpeed="0.00" departDelay="80.00" arrival="231.00" arrivalLane="53i_0" arrivalPos="6.00" arrivalSpeed="11.58" duration="85.00" routeLength="1014.00" waitingTime="0.00" waitingCount="0" stopTime="0.00" timeLoss="21.13" rerouteNo="0" devices="tripinfo_down_98" vType="typeNS" speedFactor="1.12" vaporized=""/>
    <tripinfo id="down_93" depart="139.00" departLane="53o_0" departPos="6.00" departSpeed="0.00" departDelay="75.00" arrival="233.00" arrivalLane="52i_0" arrivalPos="6.00" arrivalSpeed="10.46" duration="94.00" routeLength="1002.23" waitingTime="0.00" waitingCount="0" stopTime="0.00" timeLoss="17.54" rerouteNo="0" devices="tripinfo_down_93" vType="typeNS" speedFactor="0.92" vaporized=""/>
    <tripinfo id="down_48" depart="72.00" departLane="52o_0" departPos="6.00" departSpeed="0.00" departDelay="40.00" arrival="234.00" arrivalLane="54i_0" arrivalPos="6.00" arrivalSpeed="10.12" duration="162.00" routeLength="1002.23" waitingTime="35.00" waitingCount="2" stopTime="0.00" timeLoss="81.64" rerouteNo="0" devices="tripinfo_down_48" vType="typeNS" speedFactor="0.88" vaporized=""/>
    <tripinfo id="right_100" depart="145.00" departLane="53o_0" departPos="6.00" departSpeed="0.00" departDelay="78.00" arrival="236.00" arrivalLane="54i_0" arrivalPos="6.00" arrivalSpeed="10.62" duration="91.00" routeLength="1014.00" waitingTime="0.00" waitingCount="0" stopTime="0.00" timeLoss="24.04" rerouteNo="0" devices="tripinfo_right_100" vType="typeNS" speedFactor="1.07" vaporized=""/>
    <tripinfo id="down_116" depart="157.00" departLane="54o_0" departPos="6.00" departSpeed="0.00" departDelay="79.00" arrival="238.00" arrivalLane="53i_0" arrivalPos="6.00" arrivalSpeed="13.54" duration="81.00" routeLength="1014.00" waitingTime="0.00" waitingCount="0" stopTime="0.00" timeLoss="19.86" rerouteNo="0" devices="tripinfo_down_116" vType="typeNS" speedFactor="1.18" vaporized=""/>
    <tripinfo id="left_16" depart="27.00" departLane="52o_0" departPos="5.10" departSpeed="0.00" departDelay="16.00" arrival="239.00" arrivalLane="51i_0" arrivalPos="6.00" arrivalSpeed="10.13" duration="212.00" routeLength="1014.90" waitingTime="89.00" waitingCount="3" stopTime="0.00" timeLoss="129.68" rerouteNo="0" devices="tripinfo_left_16" vType="typeWE" speedFactor="0.88" vaporized=""/>
    <tripinfo id="left_92" depart="140.00" departLane="54o_0" departPos="6.00" departSpeed="0.00" departDelay="77.00" arrival="242.00" arrivalLane="51i_0" arrivalPos="6.00" arrivalSpeed="9.35" duration="102.00" routeLength="1002.23" waitingTime="0.00" waitingCount="0" stopTime="0.00" timeLoss="17.31" rerouteNo="0" devices="tripinfo_left_92" vType="typeNS" speedFactor="0.83" vaporized=""/>
    <tripinfo id="down_103" depart="151.00" departLane="53o_0" departPos="6.00" departSpeed="0.00" departDelay="83.00" arrival="243.00" arrivalLane="52i_0" arrivalPos="6.00" arrivalSpeed="11.82" duration="92.00" routeLength="1002.23" waitingTime="0.00" waitingCount="0" stopTime="0.00" timeLoss="17.54" rerouteNo="0" devices="tripinfo_down_103" vType="typeNS" speedFactor="0.95" vaporized=""/>
    <tripinfo id="left_105" depart="152.00" departLane="54o_0" departPos="6.00" departSpeed="0.00" departDelay="83.00" arrival="244.00" arrivalLane="51i_0" arrivalPos="6.00" arrivalSpeed="10.06" duration="92.00" routeLength="1002.23" waitingTime="0.00" waitingCount="0" stopTime="0.00" timeLoss="25.94" rerouteNo="0" devices="tripinfo_left_105" vType="typeNS" speedFactor="1.07" vaporized=""/>
    <tripinfo id="down_108" depart="157.00" departLane="53o_0" departPos="6.00" departSpeed="0.00" departDelay="84.00" arrival="245.00" arrivalLane="52i_0" arrivalPos="6.00" arrivalSpeed="12.81" duration="88.00" routeLength="1002.23" waitingTime="0.00" waitingCount="0" stopTime="0.00" timeLoss="21.31" rerouteNo="0" devices="tripinfo_down_108" vType="typeNS" speedFactor="1.06" vaporized=""/>