<?xml version="1.0" encoding="UTF-8"?>

<!-- generated on 02 يون, 2021 12:39:27 ص by Eclipse SUMO GUI Version v1_8_0+0922-7b2bbb9a60
<configuration xmlns:xsi="http://www.w3.org/2001/XMLSchema-instance" xsi:noNamespaceSchemaLocation="http://sumo.dlr.de/xsd/sumoConfiguration.xsd">

    <input>
        <net-file value="2way-single-intersection/single-intersection.net.xml"/>
        <route-files value="2way-single-intersection/single-intersection-vhvh.rou.xml"/>
    </input>

    <output>
        <tripinfo-output value="tripinfo.xml"/>
    </output>

    <time>
        <step-length value=".5"/>
    </time>

    <processing>
        <collision.action value="none"/>
        <collision.mingap-factor value="0"/>
        <time-to-teleport value="-1"/>
        <time-to-teleport.highways value="-1"/>
    </processing>

    <traci_server>
        <remote-port value="56331"/>
    </traci_server>

    <gui_only>
        <tracker-interval value="0.5"/>
    </gui_only>

</configuration>
-->

<tripinfos xmlns:xsi="http://www.w3.org/2001/XMLSchema-instance" xsi:noNamespaceSchemaLocation="http://sumo.dlr.de/xsd/tripinfo_file.xsd">
    <tripinfo id="flow_ns.0" depart="0.00" departLane="n_t_0" departPos="5.10" departSpeed="14.73" departDelay="0.00" arrival="43.00" arrivalLane="t_s_0" arrivalPos="139.60" arrivalSpeed="6.93" duration="43.00" routeLength="294.90" waitingTime="0.00" waitingCount="0" stopTime="0.00" timeLoss="0.56" rerouteNo="0" devices="tripinfo_flow_ns.0" vType="DEFAULT_VEHTYPE@flow_ns.0" speedFactor="1.06" vaporized=""/>
    <tripinfo id="flow_sn.0" depart="0.00" departLane="s_t_0" departPos="5.10" departSpeed="13.04" departDelay="0.00" arrival="43.00" arrivalLane="t_n_0" arrivalPos="139.50" arrivalSpeed="6.89" duration="43.00" routeLength="294.90" waitingTime="0.00" waitingCount="0" stopTime="0.00" timeLoss="0.56" rerouteNo="0" devices="tripinfo_flow_sn.0" vType="DEFAULT_VEHTYPE@flow_sn.0" speedFactor="0.94" vaporized=""/>
    <tripinfo id="flow_ns.1" depart="4.00" departLane="n_t_0" departPos="5.10" departSpeed="12.06" departDelay="0.40" arrival="47.00" arrivalLane="t_s_0" arrivalPos="139.60" arrivalSpeed="6.78" duration="43.00" routeLength="294.90" waitingTime="0.00" waitingCount="0" stopTime="0.00" timeLoss="0.73" rerouteNo="0" devices="tripinfo_flow_ns.1" vType="DEFAULT_VEHTYPE@flow_ns.1" speedFactor="1.03" vaporized=""/>
    <tripinfo id="flow_ns.2" depart="7.50" departLane="n_t_0" departPos="5.10" departSpeed="10.62" departDelay="0.30" arrival="50.50" arrivalLane="t_s_0" arrivalPos="139.60" arrivalSpeed="6.78" duration="43.00" routeLength="294.90" waitingTime="0.00" waitingCount="0" stopTime="0.00" timeLoss="0.78" rerouteNo="0" devices="tripinfo_flow_ns.2" vType="DEFAULT_VEHTYPE@flow_ns.2" speedFactor="0.83" vaporized=""/>
    <tripinfo id="flow_sn.1" depart="7.50" departLane="s_t_0" departPos="5.10" departSpeed="14.54" departDelay="0.30" arrival="50.50" arrivalLane="t_n_0" arrivalPos="139.50" arrivalSpeed="6.95" duration="43.00" routeLength="294.90" waitingTime="0.00" waitingCount="0" stopTime="0.00" timeLoss="0.49" rerouteNo="0" devices="tripinfo_flow_sn.1" vType="DEFAULT_VEHTYPE@flow_sn.1" speedFactor="1.05" vaporized=""/>
    <tripinfo id="flow_ns.3" depart="11.00" departLane="n_t_0" departPos="5.10" departSpeed="10.49" departDelay="0.20" arrival="54.00" arrivalLane="t_s_0" arrivalPos="139.60" arrivalSpeed="6.86" duration="43.00" routeLength="294.90" waitingTime="0.00" waitingCount="0" stopTime="0.00" timeLoss="0.76" rerouteNo="0" devices="tripinfo_flow_ns.3" vType="DEFAULT_VEHTYPE@flow_ns.3" speedFactor="0.86" vaporized=""/>
    <tripinfo id="flow_ew.0" depart="0.00" departLane="e_t_0" departPos="5.10" departSpeed="14.04" departDelay="0.00" arrival="70.00" arrivalLane="t_w_0" arrivalPos="139.67" arrivalSpeed="6.83" duration="70.00" routeLength="294.97" waitingTime="22.50" waitingCount="1" stopTime="0.00" timeLoss="27.64" rerouteNo="0" devices="tripinfo_flow_ew.0" vType="DEFAULT_VEHTYPE@flow_ew.0" speedFactor="1.01" vaporized=""/>
    <tripinfo id="flow_we.0" depart="0.00" departLane="w_t_0" departPos="5.10" departSpeed="15.05" departDelay="0.00" arrival="70.50" arrivalLane="t_e_0" arrivalPos="139.60" arrivalSpeed="6.82" duration="70.50" routeLength="294.97" waitingTime="22.50" waitingCount="1" stopTime="0.00" timeLoss="27.90" rerouteNo="0" devices="tripinfo_flow_we.0" vType="DEFAULT_VEHTYPE@flow_we.0" speedFactor="1.08" vaporized=""/>
    <tripinfo id="flow_ew.1" depart="7.50" departLane="e_t_0" departPos="5.10" departSpeed="12.32" departDelay="0.30" arrival="72.50" arrivalLane="t_w_0" arrivalPos="139.67" arrivalSpeed="6.93" duration="65.00" routeLength="294.97" waitingTime="14.00" waitingCount="1" stopTime="0.00" timeLoss="22.55" rerouteNo="0" devices="tripinfo_flow_ew.1" vType="DEFAULT_VEHTYPE@flow_ew.1" speedFactor="0.89" vaporized=""/>
    <tripinfo id="flow_we.1" depart="7.50" departLane="w_t_0" departPos="5.10" departSpeed="13.04" departDelay="0.30" arrival="72.50" arrivalLane="t_e_0" arrivalPos="139.60" arrivalSpeed="6.84" duration="65.00" routeLength="294.97" waitingTime="14.00" waitingCount="1" stopTime="0.00" timeLoss="22.54" rerouteNo="0" devices="tripinfo_flow_we.1" vType="DEFAULT_VEHTYPE@flow_we.1" speedFactor="0.94" vaporized=""/>
    <tripinfo id="flow_ew.2" depart="14.50" departLane="e_t_0" departPos="5.10" departSpeed="14.55" departDelay="0.10" arrival="75.00" arrivalLane="t_w_0" arrivalPos="139.67" arrivalSpeed="6.80" duration="60.50" routeLength="294.97" waitingTime="9.50" waitingCount="1" stopTime="0.00" timeLoss="18.11" rerouteNo="0" devices="tripinfo_flow_ew.2" vType="DEFAULT_VEHTYPE@flow_ew.2" speedFactor="1.05" vaporized=""/>
    <tripinfo id="flow_we.2" depart="14.50" departLane="w_t_0" departPos="5.10" departSpeed="15.61" departDelay="0.10" arrival="75.00" arrivalLane="t_e_0" arrivalPos="139.60" arrivalSpeed="6.96" duration="60.50" routeLength="294.97" waitingTime="9.50" waitingCount="1" stopTime="0.00" timeLoss="17.89" rerouteNo="0" devices="tripinfo_flow_we.2" vType="DEFAULT_VEHTYPE@flow_we.2" speedFactor="1.12" vaporized=""/>
    <tripinfo id="flow_ew.3" depart="22.00" departLane="e_t_0" departPos="5.10" departSpeed="13.09" departDelay="0.40" arrival="77.00" arrivalLane="t_w_0" arrivalPos="139.67" arrivalSpeed="6.94" duration="55.00" routeLength="294.97" waitingTime="3.50" waitingCount="1" stopTime="0.00" timeLoss="12.75" rerouteNo="0" devices="tripinfo_flow_ew.3" vType="DEFAULT_VEHTYPE@flow_ew.3" speedFactor="0.94" vaporized=""/>
    <tripinfo id="flow_we.3" depart="22.00" departLane="w_t_0" departPos="5.10" departSpeed="13.01" departDelay="0.40" arrival="77.00" arrivalLane="t_e_0" arrivalPos="139.60" arrivalSpeed="6.96" duration="55.00" routeLength="294.97" waitingTime="3.50" waitingCount="1" stopTime="0.00" timeLoss="12.54" rerouteNo="0" devices="tripinfo_flow_we.3" vType="DEFAULT_VEHTYPE@flow_we.3" speedFactor="0.94" vaporized=""/>
    <tripinfo id="flow_we.4" depart="29.00" departLane="w_t_0" departPos="5.10" departSpeed="12.37" departDelay="0.20" arrival="79.00" arrivalLane="t_e_0" arrivalPos="139.60" arrivalSpeed="6.91" duration="50.00" routeLength="294.97" waitingTime="0.00" waitingCount="0" stopTime="0.00" timeLoss="7.69" rerouteNo="0" devices="tripinfo_flow_we.4" vType="DEFAULT_VEHTYPE@flow_we.4" speedFactor="0.89" vaporized=""/>
    <tripinfo id="flow_ew.4" depart="29.00" departLane="e_t_0" departPos="5.10" departSpeed="13.55" departDelay="0.20" arrival="79.50" arrivalLane="t_w_0" arrivalPos="139.67" arrivalSpeed="6.77" duration="50.50" routeLength="294.97" waitingTime="0.00" waitingCount="0" stopTime="0.00" timeLoss="8.28" rerouteNo="0" devices="tripinfo_flow_ew.4" vType="DEFAULT_VEHTYPE@flow_ew.4" speedFactor="0.98" vaporized=""/>
    <tripinfo id="flow_we.5" depart="36.00" departLane="w_t_0" departPos="5.10" departSpeed="15.73" departDelay="0.00" arrival="81.00" arrivalLane="t_e_0" arrivalPos="139.60" arrivalSpeed="6.91" duration="45.00" routeLength="294.97" waitingTime="0.00" waitingCount="0" stopTime="0.00" timeLoss="2.84" rerouteNo="0" devices="tripinfo_flow_we.5" vType="DEFAULT_VEHTYPE@flow_we.5" speedFactor="1.13" vaporized=""/>
    <tripinfo id="flow_ew.5" depart="36.00" departLane="e_t_0" departPos="5.10" departSpeed="13.19" departDelay="0.00" arrival="82.00" arrivalLane="t_w_0" arrivalPos="139.67" arrivalSpeed="6.81" duration="46.00" routeLength="294.97" waitingTime="0.00" waitingCount="0" stopTime="0.00" timeLoss="3.43" rerouteNo="0" devices="tripinfo_flow_ew.5" vType="DEFAULT_VEHTYPE@flow_ew.5" speedFactor="0.95" vaporized=""/>
    <tripinfo id="flow_we.6" depart="43.50" departLane="w_t_0" departPos="5.10" departSpeed="16.29" departDelay="0.30" arrival="86.00" arrivalLane="t_e_0" arrivalPos="139.60" arrivalSpeed="6.94" duration="42.50" routeLength="294.97" waitingTime="0.00" waitingCount="0" stopTime="0.00" timeLoss="0.35" rerouteNo="0" devices="tripinfo_flow_we.6" vType="DEFAULT_VEHTYPE@flow_we.6" speedFactor="1.17" vaporized=""/>
    <tripinfo id="flow_ew.6" depart="43.50" departLane="e_t_0" departPos="5.10" departSpeed="13.97" departDelay="0.30" arrival="86.50" arrivalLane="t_w_0" arrivalPos="139.67" arrivalSpeed="6.91" duration="43.00" routeLength="294.97" waitingTime="0.00" waitingCount="0" stopTime="0.00" timeLoss="0.66" rerouteNo="0" devices="tripinfo_flow_ew.6" vType="DEFAULT_VEHTYPE@flow_ew.6" speedFactor="1.01" vaporized=""/>
    <tripinfo id="flow_ew.7" depart="50.50" departLane="e_t_0" departPos="5.10" departSpeed="16.40" departDelay="0.10" arrival="93.50" arrivalLane="t_w_0" arrivalPos="139.67" arrivalSpeed="6.94" duration="43.00" routeLength="294.97" waitingTime="0.00" waitingCount="0" stopTime="0.00" timeLoss="0.49" rerouteNo="0" devices="tripinfo_flow_ew.7" vType="DEFAULT_VEHTYPE@flow_ew.7" speedFactor="1.18" vaporized=""/>
    <tripinfo id="flow_we.7" depart="50.50" departLane="w_t_0" departPos="5.10" departSpeed="15.32" departDelay="0.10" arrival="93.50" arrivalLane="t_e_0" arrivalPos="139.60" arrivalSpeed="6.82" duration="43.00" routeLength="294.97" waitingTime="0.00" waitingCount="0" stopTime="0.00" timeLoss="0.52" rerouteNo="0" devices="tripinfo_flow_we.7" vType="DEFAULT_VEHTYPE@flow_we.7" speedFactor="1.10" vaporized=""/>
    <tripinfo id="flow_ns.4" depart="14.50" departLane="n_t_0" departPos="5.10" departSpeed="10.55" departDelay="0.10" arrival="113.50" arrivalLane="t_s_0" arrivalPos="139.60" arrivalSpeed="6.80" duration="99.00" routeLength="294.90" waitingTime="51.00" waitingCount="1" stopTime="0.00" timeLoss="56.79" rerouteNo="0" devices="tripinfo_flow_ns.4" vType="DEFAULT_VEHTYPE@flow_ns.4" speedFactor="1.09" vaporized=""/>
    <tripinfo id="flow_sn.2" depart="14.50" departLane="s_t_0" departPos="5.10" departSpeed="14.27" departDelay="0.10" arrival="113.50" arrivalLane="t_n_0" arrivalPos="139.50" arrivalSpeed="6.82" duration="99.00" routeLength="294.90" waitingTime="50.50" waitingCount="1" stopTime="0.00" timeLoss="56.66" rerouteNo="0" devices="tripinfo_flow_sn.2" vType="DEFAULT_VEHTYPE@flow_sn.2" speedFactor="1.03" vaporized=""/>
    <tripinfo id="flow_sn.3" depart="22.00" departLane="s_t_0" departPos="5.10" departSpeed="12.21" departDelay="0.40" arrival="115.50" arrivalLane="t_n_0" arrivalPos="139.50" arrivalSpeed="6.84" duration="93.50" routeLength="294.90" waitingTime="43.00" waitingCount="1" stopTime="0.00" timeLoss="51.29" rerouteNo="0" devices="tripinfo_flow_sn.3" vType="DEFAULT_VEHTYPE@flow_sn.3" speedFactor="0.88" vaporized=""/>
    <tripinfo id="flow_ns.5" depart="18.00" departLane="n_t_0" departPos="5.10" departSpeed="10.37" departDelay="0.00" arrival="116.00" arrivalLane="t_s_0" arrivalPos="139.60" arrivalSpeed="6.95" duration="98.00" routeLength="294.90" waitingTime="47.00" waitingCount="1" stopTime="0.00" timeLoss="55.45" rerouteNo="0" devices="tripinfo_flow_ns.5" vType="DEFAULT_VEHTYPE@flow_ns.5" speedFactor="0.99" vaporized=""/>
    <tripinfo id="flow_ns.6" depart="22.00" departLane="n_t_0" departPos="5.10" departSpeed="11.50" departDelay="0.40" arrival="118.00" arrivalLane="t_s_0" arrivalPos="139.60" arrivalSpeed="6.77" duration="96.00" routeLength="294.90" waitingTime="45.00" waitingCount="1" stopTime="0.00" timeLoss="53.59" rerouteNo="0" devices="tripinfo_flow_ns.6" vType="DEFAULT_VEHTYPE@flow_ns.6" speedFactor="0.93" vaporized=""/>
    <tripinfo id="flow_sn.4" depart="29.00" departLane="s_t_0" departPos="5.10" departSpeed="14.04" departDelay="0.20" arrival="118.00" arrivalLane="t_n_0" arrivalPos="139.50" arrivalSpeed="6.76" duration="89.00" routeLength="294.90" waitingTime="38.00" waitingCount="1" stopTime="0.00" timeLoss="46.67" rerouteNo="0" devices="tripinfo_flow_sn.4" vType="DEFAULT_VEHTYPE@flow_sn.4" speedFactor="1.01" vaporized=""/>
    <tripinfo id="flow_ns.7" depart="25.50" departLane="n_t_0" departPos="5.10" departSpeed="10.55" departDelay="0.30" arrival="120.50" arrivalLane="t_s_0" arrivalPos="139.60" arrivalSpeed="6.97" duration="95.00" routeLength="294.90" waitingTime="42.50" waitingCount="1" stopTime="0.00" timeLoss="52.51" rerouteNo="0" devices="tripinfo_flow_ns.7" vType="DEFAULT_VEHTYPE@flow_ns.7" speedFactor="1.16" vaporized=""/>
    <tripinfo id="flow_sn.5" depart="36.00" departLane="s_t_0" departPos="5.10" departSpeed="12.75" departDelay="0.00" arrival="120.50" arrivalLane="t_n_0" arrivalPos="139.50" arrivalSpeed="6.83" duration="84.50" routeLength="294.90" waitingTime="32.50" waitingCount="1" stopTime="0.00" timeLoss="41.96" rerouteNo="0" devices="tripinfo_flow_sn.5" vType="DEFAULT_VEHTYPE@flow_sn.5" speedFactor="0.92" vaporized=""/>
    <tripinfo id="flow_ns.8" depart="29.00" departLane="n_t_0" departPos="5.10" departSpeed="10.48" departDelay="0.20" arrival="122.50" arrivalLane="t_s_0" arrivalPos="139.60" arrivalSpeed="6.85" duration="93.50" routeLength="294.90" waitingTime="41.00" waitingCount="1" stopTime="0.00" timeLoss="51.18" rerouteNo="0" devices="tripinfo_flow_ns.8" vType="DEFAULT_VEHTYPE@flow_ns.8" speedFactor="1.02" vaporized=""/>
    <tripinfo id="flow_sn.6" depart="43.50" departLane="s_t_0" departPos="5.10" departSpeed="16.05" departDelay="0.30" arrival="122.50" arrivalLane="t_n_0" arrivalPos="139.50" arrivalSpeed="6.98" duration="79.00" routeLength="294.90" waitingTime="27.50" waitingCount="1" stopTime="0.00" timeLoss="36.64" rerouteNo="0" devices="tripinfo_flow_sn.6" vType="DEFAULT_VEHTYPE@flow_sn.6" speedFactor="1.15" vaporized=""/>
    <tripinfo id="flow_ns.9" depart="32.50" departLane="n_t_0" departPos="5.10" departSpeed="10.47" departDelay="0.10" arrival="124.50" arrivalLane="t_s_0" arrivalPos="139.60" arrivalSpeed="6.81" duration="92.00" routeLength="294.90" waitingTime="39.50" waitingCount="1" stopTime="0.00" timeLoss="49.82" rerouteNo="0" devices="tripinfo_flow_ns.9" vType="DEFAULT_VEHTYPE@flow_ns.9" speedFactor="0.83" vaporized=""/>
    <tripinfo id="flow_sn.7" depart="50.50" departLane="s_t_0" departPos="5.10" departSpeed="13.53" departDelay="0.10" arrival="124.50" arrivalLane="t_n_0" arrivalPos="139.50" arrivalSpeed="6.77" duration="74.00" routeLength="294.90" waitingTime="22.50" waitingCount="1" stopTime="0.00" timeLoss="31.80" rerouteNo="0" devices="tripinfo_flow_sn.7" vType="DEFAULT_VEHTYPE@flow_sn.7" speedFactor="0.97" vaporized=""/>
    <tripinfo id="flow_ns.10" depart="36.00" departLane="n_t_0" departPos="5.10" departSpeed="10.44" departDelay="0.00" arrival="127.00" arrivalLane="t_s_0" arrivalPos="139.60" arrivalSpeed="6.79" duration="91.00" routeLength="294.90" waitingTime="37.50" waitingCount="1" stopTime="0.00" timeLoss="48.53" rerouteNo="0" devices="tripinfo_flow_ns.10" vType="DEFAULT_VEHTYPE@flow_ns.10" speedFactor="0.87" vaporized=""/>
    <tripinfo id="flow_sn.8" depart="58.00" departLane="s_t_0" departPos="5.10" departSpeed="13.30" departDelay="0.40" arrival="127.00" arrivalLane="t_n_0" arrivalPos="139.50" arrivalSpeed="6.91" duration="69.00" routeLength="294.90" waitingTime="16.50" waitingCount="1" stopTime="0.00" timeLoss="26.45" rerouteNo="0" devices="tripinfo_flow_sn.8" vType="DEFAULT_VEHTYPE@flow_sn.8" speedFactor="0.96" vaporized=""/>
    <tripinfo id="flow_ns.11" depart="40.00" departLane="n_t_0" departPos="5.10" departSpeed="11.62" departDelay="0.40" arrival="129.00" arrivalLane="t_s_0" arrivalPos="139.60" arrivalSpeed="6.85" duration="89.00" routeLength="294.90" waitingTime="36.00" waitingCount="1" stopTime="0.00" timeLoss="46.68" rerouteNo="0" devices="tripinfo_flow_ns.11" vType="DEFAULT_VEHTYPE@flow_ns.11" speedFactor="0.93" vaporized=""/>
    <tripinfo id="flow_sn.9" depart="65.00" departLane="s_t_0" departPos="5.10" departSpeed="13.86" departDelay="0.20" arrival="129.00" arrivalLane="t_n_0" arrivalPos="139.50" arrivalSpeed="6.92" duration="64.00" routeLength="294.90" waitingTime="12.00" waitingCount="1" stopTime="0.00" timeLoss="21.68" rerouteNo="0" devices="tripinfo_flow_sn.9" vType="DEFAULT_VEHTYPE@flow_sn.9" speedFactor="1.00" vaporized=""/>
    <tripinfo id="flow_ns.12" depart="43.50" departLane="n_t_0" departPos="5.10" departSpeed="10.55" departDelay="0.30" arrival="131.00" arrivalLane="t_s_0" arrivalPos="139.60" arrivalSpeed="6.97" duration="87.50" routeLength="294.90" waitingTime="35.00" waitingCount="1" stopTime="0.00" timeLoss="45.28" rerouteNo="0" devices="tripinfo_flow_ns.12" vType="DEFAULT_VEHTYPE@flow_ns.12" speedFactor="1.18" vaporized=""/>
    <tripinfo id="flow_sn.10" depart="72.00" departLane="s_t_0" departPos="5.10" departSpeed="16.25" departDelay="0.00" arrival="131.00" arrivalLane="t_n_0" arrivalPos="139.50" arrivalSpeed="6.83" duration="59.00" routeLength="294.90" waitingTime="6.50" waitingCount="1" stopTime="0.00" timeLoss="16.85" rerouteNo="0" devices="tripinfo_flow_sn.10" vType="DEFAULT_VEHTYPE@flow_sn.10" speedFactor="1.17" vaporized=""/>
    <tripinfo id="flow_ns.13" depart="47.00" departLane="n_t_0" departPos="5.10" departSpeed="10.46" departDelay="0.20" arrival="133.50" arrivalLane="t_s_0" arrivalPos="139.60" arrivalSpeed="6.97" duration="86.50" routeLength="294.90" waitingTime="33.00" waitingCount="1" stopTime="0.00" timeLoss="43.95" rerouteNo="0" devices="tripinfo_flow_ns.13" vType="DEFAULT_VEHTYPE@flow_ns.13" speedFactor="0.99" vaporized=""/>
    <tripinfo id="flow_sn.11" depart="79.50" departLane="s_t_0" departPos="5.10" departSpeed="12.49" departDelay="0.30" arrival="133.50" arrivalLane="t_n_0" arrivalPos="139.50" arrivalSpeed="6.77" duration="54.00" routeLength="294.90" waitingTime="0.00" waitingCount="0" stopTime="0.00" timeLoss="11.63" rerouteNo="0" devices="tripinfo_flow_sn.11" vType="DEFAULT_VEHTYPE@flow_sn.11" speedFactor="0.90" vaporized=""/>
    <tripinfo id="flow_ns.14" depart="50.50" departLane="n_t_0" departPos="5.10" departSpeed="10.47" departDelay="0.10" arrival="135.50" arrivalLane="t_s_0" arrivalPos="139.60" arrivalSpeed="6.82" duration="85.00" routeLength="294.90" waitingTime="31.50" waitingCount="1" stopTime="0.00" timeLoss="42.60" rerouteNo="0" devices="tripinfo_flow_ns.14" vType="DEFAULT_VEHTYPE@flow_ns.14" speedFactor="1.02" vaporized=""/>
    <tripinfo id="flow_sn.12" depart="86.50" departLane="s_t_0" departPos="5.10" departSpeed="15.56" departDelay="0.10" arrival="135.50" arrivalLane="t_n_0" arrivalPos="139.50" arrivalSpeed="6.83" duration="49.00" routeLength="294.90" waitingTime="0.00" waitingCount="0" stopTime="0.00" timeLoss="6.79" rerouteNo="0" devices="tripinfo_flow_sn.12" vType="DEFAULT_VEHTYPE@flow_sn.12" speedFactor="1.12" vaporized=""/>
    <tripinfo id="flow_ns.15" depart="54.00" departLane="n_t_0" departPos="5.10" departSpeed="10.60" departDelay="0.00" arrival="137.50" arrivalLane="t_s_0" arrivalPos="139.60" arrivalSpeed="6.91" duration="83.50" routeLength="294.90" waitingTime="30.50" waitingCount="1" stopTime="0.00" timeLoss="41.23" rerouteNo="0" devices="tripinfo_flow_ns.15" vType="DEFAULT_VEHTYPE@flow_ns.15" speedFactor="0.90" vaporized=""/>
    <tripinfo id="flow_sn.13" depart="94.00" departLane="s_t_0" departPos="5.10" departSpeed="12.60" departDelay="0.40" arrival="138.00" arrivalLane="t_n_0" arrivalPos="139.50" arrivalSpeed="6.79" duration="44.00" routeLength="294.90" waitingTime="0.00" waitingCount="0" stopTime="0.00" timeLoss="1.45" rerouteNo="0" devices="tripinfo_flow_sn.13" vType="DEFAULT_VEHTYPE@flow_sn.13" speedFactor="0.91" vaporized=""/>
    <tripinfo id="flow_ns.16" depart="58.00" departLane="n_t_0" departPos="5.10" departSpeed="11.57" departDelay="0.40" arrival="140.00" arrivalLane="t_s_0" arrivalPos="139.60" arrivalSpeed="6.87" duration="82.00" routeLength="294.90" waitingTime="27.50" waitingCount="1" stopTime="0.00" timeLoss="39.40" rerouteNo="0" devices="tripinfo_flow_ns.16" vType="DEFAULT_VEHTYPE@flow_ns.16" speedFactor="1.03" vaporized=""/>
    <tripinfo id="flow_ns.17" depart="61.50" departLane="n_t_0" departPos="5.10" departSpeed="10.58" departDelay="0.30" arrival="142.00" arrivalLane="t_s_0" arrivalPos="139.60" arrivalSpeed="6.84" duration="80.50" routeLength="294.90" waitingTime="27.00" waitingCount="1" stopTime="0.00" timeLoss="38.01" rerouteNo="0" devices="tripinfo_flow_ns.17" vType="DEFAULT_VEHTYPE@flow_ns.17" speedFactor="1.04" vaporized=""/>
    <tripinfo id="flow_we.8" depart="58.00" departLane="w_t_0" departPos="5.10" departSpeed="14.42" departDelay="0.40" arrival="156.00" arrivalLane="t_e_0" arrivalPos="139.60" arrivalSpeed="6.91" duration="98.00" routeLength="294.97" waitingTime="50.50" waitingCount="1" stopTime="0.00" timeLoss="55.75" rerouteNo="0" devices="tripinfo_flow_we.8" vType="DEFAULT_VEHTYPE@flow_we.8" speedFactor="1.04" vaporized=""/>
    <tripinfo id="flow_ew.8" depart="58.00" departLane="e_t_0" departPos="5.10" departSpeed="15.18" departDelay="0.40" arrival="156.50" arrivalLane="t_w_0" arrivalPos="139.67" arrivalSpeed="6.88" duration="98.50" routeLength="294.97" waitingTime="50.50" waitingCount="1" stopTime="0.00" timeLoss="55.94" rerouteNo="0" devices="tripinfo_flow_ew.8" vType="DEFAULT_VEHTYPE@flow_ew.8" speedFactor="1.09" vaporized=""/>
    <tripinfo id="flow_ew.9" depart="65.00" departLane="e_t_0" departPos="5.10" departSpeed="12.52" departDelay="0.20" arrival="159.00" arrivalLane="t_w_0" arrivalPos="139.67" arrivalSpeed="6.77" duration="94.00" routeLength="294.97" waitingTime="43.00" waitingCount="1" stopTime="0.00" timeLoss="51.58" rerouteNo="0" devices="tripinfo_flow_ew.9" vType="DEFAULT_VEHTYPE@flow_ew.9" speedFactor="0.90" vaporized=""/>
    <tripinfo id="flow_we.9" depart="65.00" departLane="w_t_0" departPos="5.10" departSpeed="12.19" departDelay="0.20" arrival="159.00" arrivalLane="t_e_0" arrivalPos="139.60" arrivalSpeed="6.91" duration="94.00" routeLength="294.97" waitingTime="42.50" waitingCount="1" stopTime="0.00" timeLoss="51.42" rerouteNo="0" devices="tripinfo_flow_we.9" vType="DEFAULT_VEHTYPE@flow_we.9" speedFactor="0.88" vaporized=""/>
    <tripinfo id="flow_ew.10" depart="72.00" departLane="e_t_0" departPos="5.10" departSpeed="14.13" departDelay="0.00" arrival="161.00" arrivalLane="t_w_0" arrivalPos="139.67" arrivalSpeed="6.96" duration="89.00" routeLength="294.97" waitingTime="38.00" waitingCount="1" stopTime="0.00" timeLoss="46.71" rerouteNo="0" devices="tripinfo_flow_ew.10" vType="DEFAULT_VEHTYPE@flow_ew.10" speedFactor="1.02" vaporized=""/>
    <tripinfo id="flow_we.10" depart="72.00" departLane="w_t_0" departPos="5.10" departSpeed="15.23" departDelay="0.00" arrival="161.00" arrivalLane="t_e_0" arrivalPos="139.60" arrivalSpeed="6.99" duration="89.00" routeLength="294.97" waitingTime="38.00" waitingCount="1" stopTime="0.00" timeLoss="46.58" rerouteNo="0" devices="tripinfo_flow_we.10" vType="DEFAULT_VEHTYPE@flow_we.10" speedFactor="1.10" vaporized=""/>
    <tripinfo id="flow_we.11" depart="79.50" departLane="w_t_0" departPos="5.10" departSpeed="14.23" departDelay="0.30" arrival="163.00" arrivalLane="t_e_0" arrivalPos="139.60" arrivalSpeed="6.92" duration="83.50" routeLength="294.97" waitingTime="32.50" waitingCount="1" stopTime="0.00" timeLoss="41.19" rerouteNo="0" devices="tripinfo_flow_we.11" vType="DEFAULT_VEHTYPE@flow_we.11" speedFactor="1.02" vaporized=""/>
    <tripinfo id="flow_ew.11" depart="79.50" departLane="e_t_0" departPos="5.10" departSpeed="15.88" departDelay="0.30" arrival="163.50" arrivalLane="t_w_0" arrivalPos="139.67" arrivalSpeed="6.96" duration="84.00" routeLength="294.97" waitingTime="32.50" waitingCount="1" stopTime="0.00" timeLoss="41.40" rerouteNo="0" devices="tripinfo_flow_ew.11" vType="DEFAULT_VEHTYPE@flow_ew.11" speedFactor="1.14" vaporized=""/>
    <tripinfo id="flow_we.12" depart="86.50" departLane="w_t_0" departPos="5.10" departSpeed="13.72" departDelay="0.10" arrival="165.00" arrivalLane="t_e_0" arrivalPos="139.60" arrivalSpeed="6.95" duration="78.50" routeLength="294.97" waitingTime="27.00" waitingCount="1" stopTime="0.00" timeLoss="36.36" rerouteNo="0" devices="tripinfo_flow_we.12" vType="DEFAULT_VEHTYPE@flow_we.12" speedFactor="0.99" vaporized=""/>
    <tripinfo id="flow_ew.12" depart="86.50" departLane="e_t_0" departPos="5.10" departSpeed="14.12" departDelay="0.10" arrival="165.50" arrivalLane="t_w_0" arrivalPos="139.67" arrivalSpeed="6.93" duration="79.00" routeLength="294.97" waitingTime="27.00" waitingCount="1" stopTime="0.00" timeLoss="36.55" rerouteNo="0" devices="tripinfo_flow_ew.12" vType="DEFAULT_VEHTYPE@flow_ew.12" speedFactor="1.02" vaporized=""/>
    <tripinfo id="flow_ew.13" depart="94.00" departLane="e_t_0" departPos="5.10" departSpeed="12.71" departDelay="0.40" arrival="167.50" arrivalLane="t_w_0" arrivalPos="139.67" arrivalSpeed="6.93" duration="73.50" routeLength="294.97" waitingTime="22.00" waitingCount="1" stopTime="0.00" timeLoss="31.18" rerouteNo="0" devices="tripinfo_flow_ew.13" vType="DEFAULT_VEHTYPE@flow_ew.13" speedFactor="0.91" vaporized=""/>
    <tripinfo id="flow_we.13" depart="94.00" departLane="w_t_0" departPos="5.10" departSpeed="14.46" departDelay="0.40" arrival="167.50" arrivalLane="t_e_0" arrivalPos="139.60" arrivalSpeed="6.83" duration="73.50" routeLength="294.97" waitingTime="22.00" waitingCount="1" stopTime="0.00" timeLoss="31.03" rerouteNo="0" devices="tripinfo_flow_we.13" vType="DEFAULT_VEHTYPE@flow_we.13" speedFactor="1.04" vaporized=""/>
    <tripinfo id="flow_ew.14" depart="101.00" departLane="e_t_0" departPos="5.10" departSpeed="13.07" departDelay="0.20" arrival="169.50" arrivalLane="t_w_0" arrivalPos="139.67" arrivalSpeed="6.85" duration="68.50" routeLength="294.97" waitingTime="16.50" waitingCount="1" stopTime="0.00" timeLoss="26.38" rerouteNo="0" devices="tripinfo_flow_ew.14" vType="DEFAULT_VEHTYPE@flow_ew.14" speedFactor="0.94" vaporized=""/>
    <tripinfo id="flow_we.14" depart="101.00" departLane="w_t_0" departPos="5.10" departSpeed="14.67" departDelay="0.20" arrival="169.50" arrivalLane="t_e_0" arrivalPos="139.60" arrivalSpeed="6.83" duration="68.50" routeLength="294.97" waitingTime="17.00" waitingCount="1" stopTime="0.00" timeLoss="26.21" rerouteNo="0" devices="tripinfo_flow_we.14" vType="DEFAULT_VEHTYPE@flow_we.14" speedFactor="1.06" vaporized=""/>
    <tripinfo id="flow_ew.15" depart="108.00" departLane="e_t_0" departPos="5.10" departSpeed="13.65" departDelay="0.00" arrival="172.00" arrivalLane="t_w_0" arrivalPos="139.67" arrivalSpeed="6.78" duration="64.00" routeLength="294.97" waitingTime="11.50" waitingCount="1" stopTime="0.00" timeLoss="21.52" rerouteNo="0" devices="tripinfo_flow_ew.15" vType="DEFAULT_VEHTYPE@flow_ew.15" speedFactor="0.98" vaporized=""/>
    <tripinfo id="flow_we.15" depart="108.00" departLane="w_t_0" departPos="5.10" departSpeed="14.00" departDelay="0.00" arrival="172.00" arrivalLane="t_e_0" arrivalPos="139.60" arrivalSpeed="6.77" duration="64.00" routeLength="294.97" waitingTime="11.50" waitingCount="1" stopTime="0.00" timeLoss="21.40" rerouteNo="0" devices="tripinfo_flow_we.15" vType="DEFAULT_VEHTYPE@flow_we.15" speedFactor="1.01" vaporized=""/>
    <tripinfo id="flow_ew.16" depart="115.50" departLane="e_t_0" departPos="5.10" departSpeed="14.13" departDelay="0.30" arrival="174.00" arrivalLane="t_w_0" arrivalPos="139.67" arrivalSpeed="6.89" duration="58.50" routeLength="294.97" waitingTime="6.00" waitingCount="1" stopTime="0.00" timeLoss="16.16" rerouteNo="0" devices="tripinfo_flow_ew.16" vType="DEFAULT_VEHTYPE@flow_ew.16" speedFactor="1.02" vaporized=""/>
    <tripinfo id="flow_we.16" depart="115.50" departLane="w_t_0" departPos="5.10" departSpeed="13.44" departDelay="0.30" arrival="174.00" arrivalLane="t_e_0" arrivalPos="139.60" arrivalSpeed="6.78" duration="58.50" routeLength="294.97" waitingTime="6.00" waitingCount="1" stopTime="0.00" timeLoss="16.07" rerouteNo="0" devices="tripinfo_flow_we.16" vType="DEFAULT_VEHTYPE@flow_we.16" speedFactor="0.97" vaporized=""/>
    <tripinfo id="flow_ew.17" depart="122.50" departLane="e_t_0" departPos="5.10" departSpeed="14.49" departDelay="0.10" arrival="176.00" arrivalLane="t_w_0" arrivalPos="139.67" arrivalSpeed="6.77" duration="53.50" routeLength="294.97" waitingTime="0.00" waitingCount="0" stopTime="0.00" timeLoss="11.32" rerouteNo="0" devices="tripinfo_flow_ew.17" vType="DEFAULT_VEHTYPE@flow_ew.17" speedFactor="1.04" vaporized=""/>
    <tripinfo id="flow_we.17" depart="122.50" departLane="w_t_0" departPos="5.10" departSpeed="14.00" departDelay="0.10" arrival="176.00" arrivalLane="t_e_0" arrivalPos="139.60" arrivalSpeed="6.81" duration="53.50" routeLength="294.97" waitingTime="0.50" waitingCount="1" stopTime="0.00" timeLoss="11.19" rerouteNo="0" devices="tripinfo_flow_we.17" vType="DEFAULT_VEHTYPE@flow_we.17" speedFactor="1.01" vaporized=""/>
    <tripinfo id="flow_we.18" depart="130.00" departLane="w_t_0" departPos="5.10" departSpeed="12.81" departDelay="0.40" arrival="178.00" arrivalLane="t_e_0" arrivalPos="139.60" arrivalSpeed="6.92" duration="48.00" routeLength="294.97" waitingTime="0.00" waitingCount="0" stopTime="0.00" timeLoss="5.87" rerouteNo="0" devices="tripinfo_flow_we.18" vType="DEFAULT_VEHTYPE@flow_we.18" speedFactor="0.92" vaporized=""/>