<?xml version="1.0" encoding="UTF-8"?>

<<<<<<< HEAD
<!-- generated on 07 أبر, 2021 01:34:07 م by Eclipse SUMO GUI Version v1_8_0+0922-7b2bbb9a60
=======
<!-- generated on Wed 07 Apr 2021 04:30:36 EET by Eclipse SUMO GUI Version 1.8.0
>>>>>>> 4b2e0f04656233a1d5487993a8c9766c85cdfbf1
<configuration xmlns:xsi="http://www.w3.org/2001/XMLSchema-instance" xsi:noNamespaceSchemaLocation="http://sumo.dlr.de/xsd/sumoConfiguration.xsd">

    <input>
        <net-file value="data/cross.net.xml"/>
        <route-files value="data/cross.rou.xml"/>
        <additional-files value="data/cross.det.xml"/>
    </input>

    <output>
        <tripinfo-output value="tripinfo.xml"/>
    </output>

    <time>
        <begin value="0"/>
    </time>

    <report>
        <verbose value="true"/>
        <no-step-log value="true"/>
    </report>

    <traci_server>
<<<<<<< HEAD
        <remote-port value="38469"/>
=======
        <remote-port value="46969"/>
>>>>>>> 4b2e0f04656233a1d5487993a8c9766c85cdfbf1
    </traci_server>

</configuration>
-->

<tripinfos xmlns:xsi="http://www.w3.org/2001/XMLSchema-instance" xsi:noNamespaceSchemaLocation="http://sumo.dlr.de/xsd/tripinfo_file.xsd">
    <tripinfo id="LH" depart="0.00" departLane="52o_0" departPos="7.10" departSpeed="0.00" departDelay="0.00" arrival="94.00" arrivalLane="51i_1" arrivalPos="10.00" arrivalSpeed="10.91" duration="94.00" routeLength="1013.10" waitingTime="0.00" waitingCount="0" stopTime="0.00" timeLoss="17.84" rerouteNo="0" devices="tripinfo_LH" vType="typeNS" speedFactor="0.94" vaporized=""/>
<<<<<<< HEAD
    <tripinfo id="D1" depart="1.00" departLane="51o_0" departPos="7.10" departSpeed="0.00" departDelay="1.00" arrival="96.00" arrivalLane="52i_1" arrivalPos="10.00" arrivalSpeed="10.85" duration="95.00" routeLength="1013.10" waitingTime="2.00" waitingCount="1" stopTime="0.00" timeLoss="24.30" rerouteNo="0" devices="tripinfo_D1" vType="typeNS" speedFactor="1.01" vaporized=""/>
    <tripinfo id="D2" depart="5.00" departLane="51o_0" departPos="5.10" departSpeed="0.00" departDelay="5.00" arrival="98.00" arrivalLane="52i_1" arrivalPos="10.00" arrivalSpeed="12.68" duration="93.00" routeLength="1015.10" waitingTime="3.00" waitingCount="1" stopTime="0.00" timeLoss="20.63" rerouteNo="0" devices="tripinfo_D2" vType="typeWE" speedFactor="1.08" vaporized=""/>
    <tripinfo id="agent" depart="0.00" departLane="51o_0" departPos="5.10" departSpeed="0.00" departDelay="0.00" arrival="313.00" arrivalLane="52i_1" arrivalPos="10.00" arrivalSpeed="4.00" duration="313.00" routeLength="1015.10" waitingTime="94.00" waitingCount="27" stopTime="0.00" timeLoss="239.60" rerouteNo="0" devices="tripinfo_agent" vType="typeWE" speedFactor="1.06" vaporized=""/>
=======
    <tripinfo id="D1" depart="1.00" departLane="51o_0" departPos="7.10" departSpeed="0.00" departDelay="1.00" arrival="114.00" arrivalLane="52i_1" arrivalPos="10.00" arrivalSpeed="11.68" duration="113.00" routeLength="1013.10" waitingTime="7.00" waitingCount="4" stopTime="0.00" timeLoss="42.61" rerouteNo="0" devices="tripinfo_D1" vType="typeNS" speedFactor="1.01" vaporized=""/>
    <tripinfo id="D2" depart="6.00" departLane="51o_0" departPos="5.10" departSpeed="0.00" departDelay="6.00" arrival="138.00" arrivalLane="52i_1" arrivalPos="10.00" arrivalSpeed="12.43" duration="132.00" routeLength="1015.10" waitingTime="8.00" waitingCount="5" stopTime="0.00" timeLoss="59.34" rerouteNo="0" devices="tripinfo_D2" vType="typeWE" speedFactor="1.08" vaporized=""/>
    <tripinfo id="agent" depart="0.00" departLane="51o_0" departPos="5.10" departSpeed="0.00" departDelay="0.00" arrival="326.00" arrivalLane="52i_1" arrivalPos="10.00" arrivalSpeed="11.66" duration="326.00" routeLength="1015.10" waitingTime="111.00" waitingCount="37" stopTime="0.00" timeLoss="252.46" rerouteNo="0" devices="tripinfo_agent" vType="typeWE" speedFactor="1.06" vaporized=""/>
>>>>>>> 4b2e0f04656233a1d5487993a8c9766c85cdfbf1
</tripinfos>
