<?xml version="1.0" encoding="UTF-8"?>

<!-- generated on 07 أبر, 2021 08:13:52 م by Eclipse SUMO GUI Version v1_8_0+0922-7b2bbb9a60
<configuration xmlns:xsi="http://www.w3.org/2001/XMLSchema-instance" xsi:noNamespaceSchemaLocation="http://sumo.dlr.de/xsd/sumoConfiguration.xsd">

    <input>
        <net-file value="data/cross.net.xml"/>
        <route-files value="data/cross.rou.xml"/>
        <additional-files value="data/cross.det.xml"/>
    </input>

    <output>
        <tripinfo-output value="tripinfo.xml"/>
    </output>

    <time>
        <begin value="0"/>
    </time>

    <report>
        <verbose value="true"/>
        <no-step-log value="true"/>
    </report>

    <traci_server>
        <remote-port value="36109"/>
    </traci_server>

</configuration>
-->

<tripinfos xmlns:xsi="http://www.w3.org/2001/XMLSchema-instance" xsi:noNamespaceSchemaLocation="http://sumo.dlr.de/xsd/tripinfo_file.xsd">
    <tripinfo id="LH" depart="0.00" departLane="52o_0" departPos="7.10" departSpeed="0.00" departDelay="0.00" arrival="94.00" arrivalLane="51i_1" arrivalPos="10.00" arrivalSpeed="10.91" duration="94.00" routeLength="1013.10" waitingTime="0.00" waitingCount="0" stopTime="0.00" timeLoss="17.84" rerouteNo="0" devices="tripinfo_LH" vType="typeNS" speedFactor="0.94" vaporized=""/>
    <tripinfo id="D1" depart="1.00" departLane="51o_0" departPos="7.10" departSpeed="0.00" departDelay="1.00" arrival="101.00" arrivalLane="52i_1" arrivalPos="10.00" arrivalSpeed="11.59" duration="100.00" routeLength="1013.10" waitingTime="5.00" waitingCount="1" stopTime="0.00" timeLoss="28.83" rerouteNo="0" devices="tripinfo_D1" vType="typeNS" speedFactor="1.01" vaporized=""/>
    <tripinfo id="D2" depart="8.00" departLane="51o_0" departPos="5.10" departSpeed="0.00" departDelay="8.00" arrival="121.00" arrivalLane="52i_1" arrivalPos="10.00" arrivalSpeed="12.17" duration="113.00" routeLength="1015.10" waitingTime="9.00" waitingCount="2" stopTime="0.00" timeLoss="40.27" rerouteNo="0" devices="tripinfo_D2" vType="typeWE" speedFactor="1.08" vaporized=""/>
    <tripinfo id="agent" depart="0.00" departLane="51o_0" departPos="5.10" departSpeed="0.00" departDelay="0.00" arrival="300.00" arrivalLane="52i_0" arrivalPos="10.00" arrivalSpeed="4.00" duration="300.00" routeLength="1015.10" waitingTime="86.00" waitingCount="28" stopTime="0.00" timeLoss="226.49" rerouteNo="0" devices="tripinfo_agent" vType="typeWE" speedFactor="1.06" vaporized=""/>
</tripinfos>
