<?xml version="1.0" encoding="UTF-8"?>

<!-- generated on Thu May 27 21:17:40 2021 by Eclipse SUMO sumo Version v1_8_0+0922-7b2bbb9a60
<configuration xmlns:xsi="http://www.w3.org/2001/XMLSchema-instance" xsi:noNamespaceSchemaLocation="http://sumo.dlr.de/xsd/sumoConfiguration.xsd">

    <input>
        <net-file value="data/cross.net.xml"/>
        <route-files value="data/cross.rou.xml"/>
        <additional-files value="data/cross.det.xml"/>
    </input>

    <output>
        <tripinfo-output value="tripinfo.xml"/>
    </output>

    <time>
        <begin value="0"/>
        <step-length value=".5"/>
    </time>

    <processing>
        <collision.action value="none"/>
        <collision.mingap-factor value="0"/>
        <time-to-teleport value="-1"/>
        <time-to-teleport.highways value="-1"/>
    </processing>

    <report>
        <verbose value="true"/>
        <no-step-log value="true"/>
    </report>

    <traci_server>
        <remote-port value="58095"/>
    </traci_server>

    <gui_only>
        <tracker-interval value="0.5"/>
    </gui_only>

</configuration>
-->

<tripinfos xmlns:xsi="http://www.w3.org/2001/XMLSchema-instance" xsi:noNamespaceSchemaLocation="http://sumo.dlr.de/xsd/tripinfo_file.xsd">
    <tripinfo id="up_right_5" depart="3.00" departLane="53o_0" departPos="4.60" departSpeed="0.00" departDelay="0.00" arrival="154.50" arrivalLane="52i_1" arrivalPos="6.00" arrivalSpeed="2.85" duration="151.50" routeLength="997.23" waitingTime="1.00" waitingCount="1" stopTime="0.00" timeLoss="9.04" rerouteNo="0" devices="tripinfo_up_right_5" vType="car@up_right_5" speedFactor="0.83" vaporized=""/>
    <tripinfo id="down_3" depart="1.50" departLane="54o_0" departPos="4.60" departSpeed="0.00" departDelay="0.00" arrival="159.00" arrivalLane="53i_1" arrivalPos="6.00" arrivalSpeed="3.32" duration="157.50" routeLength="1015.40" waitingTime="2.50" waitingCount="1" stopTime="0.00" timeLoss="12.39" rerouteNo="0" devices="tripinfo_down_3" vType="car@down_3" speedFactor="1.08" vaporized=""/>
    <tripinfo id="up_1" depart="1.00" departLane="53o_0" departPos="4.60" departSpeed="0.00" departDelay="0.00" arrival="165.50" arrivalLane="54i_1" arrivalPos="6.00" arrivalSpeed="5.81" duration="164.50" routeLength="1015.40" waitingTime="3.50" waitingCount="3" stopTime="0.00" timeLoss="19.25" rerouteNo="0" devices="tripinfo_up_1" vType="car@up_1" speedFactor="0.94" vaporized=""/>
    <tripinfo id="down_11" depart="13.00" departLane="54o_0" departPos="4.60" departSpeed="0.00" departDelay="0.00" arrival="165.50" arrivalLane="53i_1" arrivalPos="6.00" arrivalSpeed="5.73" duration="152.50" routeLength="1015.40" waitingTime="0.00" waitingCount="0" stopTime="0.00" timeLoss="7.23" rerouteNo="0" devices="tripinfo_down_11" vType="car@down_11" speedFactor="1.03" vaporized=""/>
    <tripinfo id="down_left_14" depart="15.50" departLane="54o_0" departPos="4.60" departSpeed="0.00" departDelay="0.00" arrival="166.00" arrivalLane="51i_1" arrivalPos="6.00" arrivalSpeed="6.86" duration="150.50" routeLength="997.23" waitingTime="0.50" waitingCount="1" stopTime="0.00" timeLoss="7.69" rerouteNo="0" devices="tripinfo_down_left_14" vType="car@down_left_14" speedFactor="0.99" vaporized=""/>
    <tripinfo id="up_10" depart="12.50" departLane="53o_0" departPos="4.60" departSpeed="0.00" departDelay="0.00" arrival="169.50" arrivalLane="54i_1" arrivalPos="6.00" arrivalSpeed="2.43" duration="157.00" routeLength="1015.40" waitingTime="0.00" waitingCount="0" stopTime="0.00" timeLoss="11.85" rerouteNo="0" devices="tripinfo_up_10" vType="car@up_10" speedFactor="1.09" vaporized=""/>
    <tripinfo id="down_left_17" depart="18.00" departLane="54o_0" departPos="4.60" departSpeed="0.00" departDelay="0.00" arrival="169.50" arrivalLane="51i_1" arrivalPos="6.00" arrivalSpeed="6.93" duration="151.50" routeLength="997.23" waitingTime="1.50" waitingCount="1" stopTime="0.00" timeLoss="8.60" rerouteNo="0" devices="tripinfo_down_left_17" vType="car@down_left_17" speedFactor="0.94" vaporized=""/>
    <tripinfo id="down_left_20" depart="20.50" departLane="54o_0" departPos="4.60" departSpeed="0.00" departDelay="0.00" arrival="173.50" arrivalLane="51i_1" arrivalPos="6.00" arrivalSpeed="6.93" duration="153.00" routeLength="997.23" waitingTime="2.50" waitingCount="1" stopTime="0.00" timeLoss="10.28" rerouteNo="0" devices="tripinfo_down_left_20" vType="car@down_left_20" speedFactor="1.02" vaporized=""/>
    <tripinfo id="left_up_7" depart="8.00" departLane="52o_0" departPos="4.60" departSpeed="0.00" departDelay="0.00" arrival="175.50" arrivalLane="54i_1" arrivalPos="6.00" arrivalSpeed="2.46" duration="167.50" routeLength="997.23" waitingTime="4.00" waitingCount="2" stopTime="0.00" timeLoss="24.96" rerouteNo="0" devices="tripinfo_left_up_7" vType="car@left_up_7" speedFactor="0.89" vaporized=""/>
    <tripinfo id="down_left_22" depart="23.50" departLane="54o_0" departPos="4.60" departSpeed="0.00" departDelay="1.50" arrival="176.50" arrivalLane="51i_1" arrivalPos="6.00" arrivalSpeed="6.99" duration="153.00" routeLength="997.23" waitingTime="3.00" waitingCount="1" stopTime="0.00" timeLoss="10.18" rerouteNo="0" devices="tripinfo_down_left_22" vType="car@down_left_22" speedFactor="0.98" vaporized=""/>
    <tripinfo id="up_29" depart="29.00" departLane="53o_0" departPos="4.60" departSpeed="0.00" departDelay="0.00" arrival="181.00" arrivalLane="54i_1" arrivalPos="6.00" arrivalSpeed="6.79" duration="152.00" routeLength="1015.40" waitingTime="0.00" waitingCount="0" stopTime="0.00" timeLoss="6.95" rerouteNo="0" devices="tripinfo_up_29" vType="car@up_29" speedFactor="0.93" vaporized=""/>
    <tripinfo id="down_left_25" depart="30.50" departLane="54o_0" departPos="4.60" departSpeed="0.00" departDelay="4.00" arrival="183.00" arrivalLane="51i_1" arrivalPos="6.00" arrivalSpeed="7.00" duration="152.50" routeLength="997.23" waitingTime="2.50" waitingCount="1" stopTime="0.00" timeLoss="9.69" rerouteNo="0" devices="tripinfo_down_left_25" vType="car@down_left_25" speedFactor="0.87" vaporized=""/>
    <tripinfo id="up_8" depart="9.00" departLane="53o_0" departPos="4.60" departSpeed="0.00" departDelay="0.00" arrival="183.50" arrivalLane="54i_1" arrivalPos="6.00" arrivalSpeed="4.40" duration="174.50" routeLength="1015.40" waitingTime="5.00" waitingCount="6" stopTime="0.00" timeLoss="29.32" rerouteNo="0" devices="tripinfo_up_8" vType="car@up_8" speedFactor="0.94" vaporized=""/>
    <tripinfo id="down_left_27" depart="34.00" departLane="54o_0" departPos="4.60" departSpeed="0.00" departDelay="6.50" arrival="185.50" arrivalLane="51i_1" arrivalPos="6.00" arrivalSpeed="6.79" duration="151.50" routeLength="997.23" waitingTime="2.00" waitingCount="1" stopTime="0.00" timeLoss="9.01" rerouteNo="0" devices="tripinfo_down_left_27" vType="car@down_left_27" speedFactor="0.95" vaporized=""/>
    <tripinfo id="left_up_15" depart="16.00" departLane="52o_0" departPos="4.60" departSpeed="0.00" departDelay="0.00" arrival="187.50" arrivalLane="54i_1" arrivalPos="6.00" arrivalSpeed="6.99" duration="171.50" routeLength="997.23" waitingTime="10.50" waitingCount="2" stopTime="0.00" timeLoss="28.95" rerouteNo="0" devices="tripinfo_left_up_15" vType="car@left_up_15" speedFactor="0.93" vaporized=""/>
    <tripinfo id="up_right_34" depart="36.50" departLane="53o_0" departPos="4.60" departSpeed="0.00" departDelay="0.00" arrival="187.50" arrivalLane="52i_1" arrivalPos="6.00" arrivalSpeed="2.34" duration="151.00" routeLength="997.23" waitingTime="0.00" waitingCount="0" stopTime="0.00" timeLoss="8.43" rerouteNo="0" devices="tripinfo_up_right_34" vType="car@up_right_34" speedFactor="0.99" vaporized=""/>
    <tripinfo id="up_right_39" depart="45.00" departLane="53o_0" departPos="4.60" departSpeed="0.00" departDelay="0.00" arrival="195.00" arrivalLane="52i_1" arrivalPos="6.00" arrivalSpeed="6.86" duration="150.00" routeLength="997.23" waitingTime="0.00" waitingCount="0" stopTime="0.00" timeLoss="7.21" rerouteNo="0" devices="tripinfo_up_right_39" vType="car@up_right_39" speedFactor="0.90" vaporized=""/>
    <tripinfo id="down_28" depart="37.00" departLane="54o_0" departPos="4.60" departSpeed="0.00" departDelay="8.50" arrival="196.00" arrivalLane="53i_1" arrivalPos="6.00" arrivalSpeed="3.73" duration="159.00" routeLength="1015.40" waitingTime="2.00" waitingCount="1" stopTime="0.00" timeLoss="13.92" rerouteNo="0" devices="tripinfo_down_28" vType="car@down_28" speedFactor="1.13" vaporized=""/>
    <tripinfo id="down_left_35" depart="46.50" departLane="54o_0" departPos="4.60" departSpeed="0.00" departDelay="7.50" arrival="199.00" arrivalLane="51i_1" arrivalPos="6.00" arrivalSpeed="5.77" duration="152.50" routeLength="997.23" waitingTime="2.50" waitingCount="1" stopTime="0.00" timeLoss="9.86" rerouteNo="0" devices="tripinfo_down_left_35" vType="car@down_left_35" speedFactor="1.02" vaporized=""/>
    <tripinfo id="down_right_2" depart="1.00" departLane="54o_0" departPos="4.60" departSpeed="0.00" departDelay="0.00" arrival="207.50" arrivalLane="52i_1" arrivalPos="6.00" arrivalSpeed="5.00" duration="206.50" routeLength="1012.71" waitingTime="41.00" waitingCount="5" stopTime="0.00" timeLoss="61.50" rerouteNo="0" devices="tripinfo_down_right_2" vType="car@down_right_2" speedFactor="1.01" vaporized=""/>
    <tripinfo id="up_right_47" depart="55.00" departLane="53o_0" departPos="4.60" departSpeed="0.00" departDelay="0.00" arrival="209.50" arrivalLane="52i_1" arrivalPos="6.00" arrivalSpeed="6.22" duration="154.50" routeLength="997.23" waitingTime="1.50" waitingCount="1" stopTime="0.00" timeLoss="11.62" rerouteNo="0" devices="tripinfo_up_right_47" vType="car@up_right_47" speedFactor="0.90" vaporized=""/>
    <tripinfo id="down_31" depart="40.00" departLane="54o_0" departPos="4.60" departSpeed="0.00" departDelay="6.50" arrival="212.00" arrivalLane="53i_1" arrivalPos="6.00" arrivalSpeed="4.06" duration="172.00" routeLength="1015.40" waitingTime="5.00" waitingCount="6" stopTime="0.00" timeLoss="26.95" rerouteNo="0" devices="tripinfo_down_31" vType="car@down_31" speedFactor="1.15" vaporized=""/>
    <tripinfo id="down_left_53" depart="63.50" departLane="54o_0" departPos="4.60" departSpeed="0.00" departDelay="0.00" arrival="215.50" arrivalLane="51i_1" arrivalPos="6.00" arrivalSpeed="6.81" duration="152.00" routeLength="997.23" waitingTime="2.00" waitingCount="1" stopTime="0.00" timeLoss="9.22" rerouteNo="0" devices="tripinfo_down_left_53" vType="car@down_left_53" speedFactor="1.10" vaporized=""/>
    <tripinfo id="up_right_51" depart="64.00" departLane="53o_0" departPos="4.60" departSpeed="0.00" departDelay="1.50" arrival="224.00" arrivalLane="52i_1" arrivalPos="6.00" arrivalSpeed="6.76" duration="160.00" routeLength="997.23" waitingTime="3.00" waitingCount="2" stopTime="0.00" timeLoss="17.12" rerouteNo="0" devices="tripinfo_up_right_51" vType="car@up_right_51" speedFactor="1.17" vaporized=""/>
    <tripinfo id="up_right_61" depart="73.00" departLane="53o_0" departPos="4.60" departSpeed="0.00" departDelay="0.00" arrival="227.00" arrivalLane="52i_1" arrivalPos="6.00" arrivalSpeed="6.95" duration="154.00" routeLength="997.23" waitingTime="0.00" waitingCount="0" stopTime="0.00" timeLoss="11.51" rerouteNo="0" devices="tripinfo_up_right_61" vType="car@up_right_61" speedFactor="1.12" vaporized=""/>
    <tripinfo id="up_45" depart="52.50" departLane="53o_0" departPos="4.60" departSpeed="0.00" departDelay="0.00" arrival="230.50" arrivalLane="54i_1" arrivalPos="6.00" arrivalSpeed="2.77" duration="178.00" routeLength="1015.40" waitingTime="7.50" waitingCount="11" stopTime="0.00" timeLoss="32.93" rerouteNo="0" devices="tripinfo_up_45" vType="car@up_45" speedFactor="1.09" vaporized=""/>
    <tripinfo id="up_left_12" depart="14.50" departLane="53o_0" departPos="4.60" departSpeed="0.00" departDelay="0.00" arrival="232.00" arrivalLane="51i_1" arrivalPos="6.00" arrivalSpeed="6.99" duration="217.50" routeLength="1012.71" waitingTime="45.00" waitingCount="12" stopTime="0.00" timeLoss="72.80" rerouteNo="0" devices="tripinfo_up_left_12" vType="car@up_left_12" speedFactor="1.05" vaporized=""/>
    <tripinfo id="up_right_63" depart="75.50" departLane="53o_0" departPos="4.60" departSpeed="0.00" departDelay="0.00" arrival="232.50" arrivalLane="52i_1" arrivalPos="6.00" arrivalSpeed="6.97" duration="157.00" routeLength="997.23" waitingTime="0.50" waitingCount="1" stopTime="0.00" timeLoss="14.38" rerouteNo="0" devices="tripinfo_up_right_63" vType="car@up_right_63" speedFactor="0.99" vaporized=""/>
    <tripinfo id="up_right_69" depart="80.00" departLane="53o_0" departPos="4.60" departSpeed="0.00" departDelay="0.00" arrival="234.50" arrivalLane="52i_1" arrivalPos="6.00" arrivalSpeed="6.78" duration="154.50" routeLength="997.23" waitingTime="2.50" waitingCount="1" stopTime="0.00" timeLoss="11.74" rerouteNo="0" devices="tripinfo_up_right_69" vType="car@up_right_69" speedFactor="1.02" vaporized=""/>
    <tripinfo id="down_left_76" depart="86.00" departLane="54o_0" departPos="4.60" departSpeed="0.00" departDelay="0.00" arrival="235.50" arrivalLane="51i_1" arrivalPos="6.00" arrivalSpeed="6.87" duration="149.50" routeLength="997.23" waitingTime="0.00" waitingCount="0" stopTime="0.00" timeLoss="6.79" rerouteNo="0" devices="tripinfo_down_left_76" vType="car@down_left_76" speedFactor="1.03" vaporized=""/>
    <tripinfo id="up_right_74" depart="83.50" departLane="53o_0" departPos="4.60" departSpeed="0.00" departDelay="1.00" arrival="236.50" arrivalLane="52i_1" arrivalPos="6.00" arrivalSpeed="6.86" duration="153.00" routeLength="997.23" waitingTime="2.00" waitingCount="1" stopTime="0.00" timeLoss="10.15" rerouteNo="0" devices="tripinfo_up_right_74" vType="car@up_right_74" speedFactor="0.96" vaporized=""/>
    <tripinfo id="up_48" depart="58.50" departLane="53o_0" departPos="4.60" departSpeed="0.00" departDelay="0.00" arrival="237.00" arrivalLane="54i_1" arrivalPos="6.00" arrivalSpeed="6.78" duration="178.50" routeLength="1015.40" waitingTime="6.00" waitingCount="7" stopTime="0.00" timeLoss="33.38" rerouteNo="0" devices="tripinfo_up_48" vType="car@up_48" speedFactor="0.88" vaporized=""/>
    <tripinfo id="up_right_79" depart="89.50" departLane="53o_0" departPos="4.60" departSpeed="0.00" departDelay="0.00" arrival="240.50" arrivalLane="52i_1" arrivalPos="6.00" arrivalSpeed="2.29" duration="151.00" routeLength="997.23" waitingTime="0.00" waitingCount="0" stopTime="0.00" timeLoss="8.41" rerouteNo="0" devices="tripinfo_up_right_79" vType="car@up_right_79" speedFactor="1.09" vaporized=""/>
    <tripinfo id="up_right_83" depart="97.00" departLane="53o_0" departPos="4.60" departSpeed="0.00" departDelay="0.00" arrival="247.00" arrivalLane="52i_1" arrivalPos="6.00" arrivalSpeed="2.78" duration="150.00" routeLength="997.23" waitingTime="0.00" waitingCount="0" stopTime="0.00" timeLoss="7.52" rerouteNo="0" devices="tripinfo_up_right_83" vType="car@up_right_83" speedFactor="0.97" vaporized=""/>
    <tripinfo id="down_left_91" depart="105.00" departLane="54o_0" departPos="4.60" departSpeed="0.00" departDelay="0.00" arrival="254.50" arrivalLane="51i_1" arrivalPos="6.00" arrivalSpeed="6.94" duration="149.50" routeLength="997.23" waitingTime="0.00" waitingCount="0" stopTime="0.00" timeLoss="6.60" rerouteNo="0" devices="tripinfo_down_left_91" vType="car@down_left_91" speedFactor="0.89" vaporized=""/>
    <tripinfo id="down_64" depart="75.50" departLane="54o_0" departPos="4.60" departSpeed="0.00" departDelay="0.00" arrival="256.00" arrivalLane="53i_1" arrivalPos="6.00" arrivalSpeed="6.89" duration="180.50" routeLength="1015.40" waitingTime="11.00" waitingCount="11" stopTime="0.00" timeLoss="35.07" rerouteNo="0" devices="tripinfo_down_64" vType="car@down_64" speedFactor="0.94" vaporized=""/>
    <tripinfo id="down_right_9" depart="9.00" departLane="54o_0" departPos="4.60" departSpeed="0.00" departDelay="0.00" arrival="260.00" arrivalLane="52i_1" arrivalPos="6.00" arrivalSpeed="6.96" duration="251.00" routeLength="1012.71" waitingTime="75.00" waitingCount="13" stopTime="0.00" timeLoss="105.88" rerouteNo="0" devices="tripinfo_down_right_9" vType="car@down_right_9" speedFactor="0.86" vaporized=""/>
    <tripinfo id="down_80" depart="91.50" departLane="54o_0" departPos="4.60" departSpeed="0.00" departDelay="0.00" arrival="262.00" arrivalLane="53i_1" arrivalPos="6.00" arrivalSpeed="3.68" duration="170.50" routeLength="1015.40" waitingTime="3.00" waitingCount="4" stopTime="0.00" timeLoss="25.38" rerouteNo="0" devices="tripinfo_down_80" vType="car@down_80" speedFactor="1.03" vaporized=""/>
    <tripinfo id="up_right_87" depart="107.50" departLane="53o_0" departPos="4.60" departSpeed="0.00" departDelay="7.50" arrival="270.50" arrivalLane="52i_1" arrivalPos="6.00" arrivalSpeed="7.00" duration="163.00" routeLength="997.23" waitingTime="4.50" waitingCount="4" stopTime="0.00" timeLoss="20.08" rerouteNo="0" devices="tripinfo_up_right_87" vType="car@up_right_87" speedFactor="1.04" vaporized=""/>
    <tripinfo id="up_left_30" depart="33.00" departLane="53o_0" departPos="4.60" departSpeed="0.00" departDelay="0.00" arrival="271.00" arrivalLane="51i_1" arrivalPos="6.00" arrivalSpeed="4.46" duration="238.00" routeLength="1012.71" waitingTime="65.00" waitingCount="8" stopTime="0.00" timeLoss="93.32" rerouteNo="0" devices="tripinfo_up_left_30" vType="car@up_left_30" speedFactor="1.18" vaporized=""/>
    <tripinfo id="up_right_89" depart="110.50" departLane="53o_0" departPos="4.60" departSpeed="0.00" departDelay="10.00" arrival="274.50" arrivalLane="52i_1" arrivalPos="6.00" arrivalSpeed="6.88" duration="164.00" routeLength="997.23" waitingTime="3.50" waitingCount="3" stopTime="0.00" timeLoss="21.51" rerouteNo="0" devices="tripinfo_up_right_89" vType="car@up_right_89" speedFactor="1.02" vaporized=""/>
    <tripinfo id="up_86" depart="104.00" departLane="53o_0" departPos="4.60" departSpeed="0.00" departDelay="4.00" arrival="278.50" arrivalLane="54i_1" arrivalPos="6.00" arrivalSpeed="6.95" duration="174.50" routeLength="1015.40" waitingTime="8.00" waitingCount="6" stopTime="0.00" timeLoss="29.17" rerouteNo="0" devices="tripinfo_up_86" vType="car@up_86" speedFactor="1.00" vaporized=""/>
    <tripinfo id="down_left_107" depart="118.00" departLane="54o_0" departPos="4.60" departSpeed="0.00" departDelay="2.00" arrival="280.50" arrivalLane="51i_1" arrivalPos="6.00" arrivalSpeed="6.87" duration="162.50" routeLength="997.23" waitingTime="2.50" waitingCount="2" stopTime="0.00" timeLoss="19.99" rerouteNo="0" devices="tripinfo_down_left_107" vType="car@down_left_107" speedFactor="1.03" vaporized=""/>
    <tripinfo id="down_left_116" depart="129.50" departLane="54o_0" departPos="4.60" departSpeed="0.00" departDelay="0.00" arrival="282.50" arrivalLane="51i_1" arrivalPos="6.00" arrivalSpeed="6.82" duration="153.00" routeLength="997.23" waitingTime="0.00" waitingCount="0" stopTime="0.00" timeLoss="10.40" rerouteNo="0" devices="tripinfo_down_left_116" vType="car@down_left_116" speedFactor="1.18" vaporized=""/>
    <tripinfo id="up_right_120" depart="135.50" departLane="53o_0" departPos="4.60" departSpeed="0.00" departDelay="0.00" arrival="285.50" arrivalLane="52i_1" arrivalPos="6.00" arrivalSpeed="6.84" duration="150.00" routeLength="997.23" waitingTime="0.00" waitingCount="0" stopTime="0.00" timeLoss="7.19" rerouteNo="0" devices="tripinfo_up_right_120" vType="car@up_right_120" speedFactor="0.94" vaporized=""/>
    <tripinfo id="up_42" depart="49.50" departLane="53o_0" departPos="4.60" departSpeed="0.00" departDelay="0.00" arrival="286.00" arrivalLane="54i_1" arrivalPos="6.00" arrivalSpeed="6.77" duration="236.50" routeLength="1015.40" waitingTime="58.00" waitingCount="9" stopTime="0.00" timeLoss="91.41" rerouteNo="0" devices="tripinfo_up_42" vType="car@up_42" speedFactor="1.09" vaporized=""/>
    <tripinfo id="down_33" depart="43.50" departLane="54o_0" departPos="4.60" departSpeed="0.00" departDelay="7.50" arrival="289.50" arrivalLane="53i_1" arrivalPos="6.00" arrivalSpeed="5.90" duration="246.00" routeLength="1015.40" waitingTime="63.00" waitingCount="15" stopTime="0.00" timeLoss="100.59" rerouteNo="0" devices="tripinfo_down_33" vType="car@down_33" speedFactor="1.17" vaporized=""/>
    <tripinfo id="down_left_122" depart="138.50" departLane="54o_0" departPos="4.60" departSpeed="0.00" departDelay="0.00" arrival="291.00" arrivalLane="51i_1" arrivalPos="6.00" arrivalSpeed="3.66" duration="152.50" routeLength="997.23" waitingTime="2.00" waitingCount="1" stopTime="0.00" timeLoss="9.89" rerouteNo="0" devices="tripinfo_down_left_122" vType="car@down_left_122" speedFactor="1.03" vaporized=""/>
    <tripinfo id="down_117" depart="130.00" departLane="54o_0" departPos="4.60" departSpeed="0.00" departDelay="0.00" arrival="291.50" arrivalLane="53i_1" arrivalPos="6.00" arrivalSpeed="6.84" duration="161.50" routeLength="1015.40" waitingTime="2.50" waitingCount="1" stopTime="0.00" timeLoss="16.00" rerouteNo="0" devices="tripinfo_down_117" vType="car@down_117" speedFactor="1.00" vaporized=""/>
    <tripinfo id="up_right_123" depart="141.50" departLane="53o_0" departPos="4.60" departSpeed="0.00" departDelay="0.00" arrival="291.50" arrivalLane="52i_1" arrivalPos="6.00" arrivalSpeed="6.88" duration="150.00" routeLength="997.23" waitingTime="0.00" waitingCount="0" stopTime="0.00" timeLoss="7.16" rerouteNo="0" devices="tripinfo_up_right_123" vType="car@up_right_123" speedFactor="1.02" vaporized=""/>
    <tripinfo id="down_121" depart="137.50" departLane="54o_0" departPos="4.60" departSpeed="0.00" departDelay="0.00" arrival="295.00" arrivalLane="53i_1" arrivalPos="6.00" arrivalSpeed="6.91" duration="157.50" routeLength="1015.40" waitingTime="0.00" waitingCount="0" stopTime="0.00" timeLoss="12.19" rerouteNo="0" devices="tripinfo_down_121" vType="car@down_121" speedFactor="1.10" vaporized=""/>
    <tripinfo id="down_right_24" depart="27.00" departLane="54o_0" departPos="4.60" departSpeed="0.00" departDelay="1.00" arrival="296.00" arrivalLane="52i_1" arrivalPos="6.00" arrivalSpeed="6.85" duration="269.00" routeLength="1012.71" waitingTime="85.50" waitingCount="13" stopTime="0.00" timeLoss="124.20" rerouteNo="0" devices="tripinfo_down_right_24" vType="car@down_right_24" speedFactor="0.83" vaporized=""/>
    <tripinfo id="up_127" depart="148.50" departLane="53o_0" departPos="4.60" departSpeed="0.00" departDelay="0.00" arrival="301.00" arrivalLane="54i_1" arrivalPos="6.00" arrivalSpeed="6.81" duration="152.50" routeLength="1015.40" waitingTime="0.00" waitingCount="0" stopTime="0.00" timeLoss="7.38" rerouteNo="0" devices="tripinfo_up_127" vType="car@up_127" speedFactor="0.82" vaporized=""/>
    <tripinfo id="down_105" depart="115.00" departLane="54o_0" departPos="4.60" departSpeed="0.00" departDelay="0.00" arrival="313.00" arrivalLane="53i_1" arrivalPos="6.00" arrivalSpeed="6.95" duration="198.00" routeLength="1015.40" waitingTime="27.50" waitingCount="8" stopTime="0.00" timeLoss="52.94" rerouteNo="0" devices="tripinfo_down_105" vType="car@down_105" speedFactor="1.07" vaporized=""/>
    <tripinfo id="down_left_140" depart="167.00" departLane="54o_0" departPos="4.60" departSpeed="0.00" departDelay="0.00" arrival="319.00" arrivalLane="51i_1" arrivalPos="6.00" arrivalSpeed="6.89" duration="152.00" routeLength="997.23" waitingTime="2.00" waitingCount="1" stopTime="0.00" timeLoss="9.15" rerouteNo="0" devices="tripinfo_down_left_140" vType="car@down_left_140" speedFactor="1.11" vaporized=""/>
    <tripinfo id="up_left_50" depart="62.00" departLane="53o_0" departPos="4.60" departSpeed="0.00" departDelay="0.00" arrival="322.50" arrivalLane="51i_1" arrivalPos="6.00" arrivalSpeed="6.87" duration="260.50" routeLength="1012.71" waitingTime="70.00" waitingCount="16" stopTime="0.00" timeLoss="115.69" rerouteNo="0" devices="tripinfo_up_left_50" vType="car@up_left_50" speedFactor="0.85" vaporized=""/>
    <tripinfo id="down_left_142" depart="173.50" departLane="54o_0" departPos="4.60" departSpeed="0.00" departDelay="6.00" arrival="325.50" arrivalLane="51i_1" arrivalPos="6.00" arrivalSpeed="6.85" duration="152.00" routeLength="997.23" waitingTime="2.00" waitingCount="1" stopTime="0.00" timeLoss="9.13" rerouteNo="0" devices="tripinfo_down_left_142" vType="car@down_left_142" speedFactor="0.94" vaporized=""/>
    <tripinfo id="up_65" depart="76.50" departLane="53o_0" departPos="4.60" departSpeed="0.00" departDelay="0.00" arrival="331.00" arrivalLane="54i_1" arrivalPos="6.00" arrivalSpeed="6.75" duration="254.50" routeLength="1015.40" waitingTime="70.50" waitingCount="19" stopTime="0.00" timeLoss="109.08" rerouteNo="0" devices="tripinfo_up_65" vType="car@up_65" speedFactor="0.88" vaporized=""/>
    <tripinfo id="down_141" depart="170.00" departLane="54o_0" departPos="4.60" departSpeed="0.00" departDelay="3.00" arrival="331.50" arrivalLane="53i_1" arrivalPos="6.00" arrivalSpeed="6.94" duration="161.50" routeLength="1015.40" waitingTime="2.50" waitingCount="1" stopTime="0.00" timeLoss="16.02" rerouteNo="0" devices="tripinfo_down_141" vType="car@down_141" speedFactor="1.16" vaporized=""/>
    <tripinfo id="up_149" depart="178.50" departLane="53o_0" departPos="4.60" departSpeed="0.00" departDelay="0.00" arrival="334.50" arrivalLane="54i_1" arrivalPos="6.00" arrivalSpeed="6.96" duration="156.00" routeLength="1015.40" waitingTime="0.00" waitingCount="0" stopTime="0.00" timeLoss="10.61" rerouteNo="0" devices="tripinfo_up_149" vType="car@up_149" speedFactor="1.04" vaporized=""/>
    <tripinfo id="up_left_59" depart="70.00" departLane="53o_0" departPos="4.60" departSpeed="0.00" departDelay="0.00" arrival="336.50" arrivalLane="51i_1" arrivalPos="6.00" arrivalSpeed="6.92" duration="266.50" routeLength="1012.71" waitingTime="75.50" waitingCount="11" stopTime="0.00" timeLoss="121.43" rerouteNo="0" devices="tripinfo_up_left_59" vType="car@up_left_59" speedFactor="0.97" vaporized=""/>
    <tripinfo id="up_138" depart="165.50" departLane="53o_0" departPos="4.60" departSpeed="0.00" departDelay="0.00" arrival="336.50" arrivalLane="54i_1" arrivalPos="6.00" arrivalSpeed="6.78" duration="171.00" routeLength="1015.40" waitingTime="2.50" waitingCount="3" stopTime="0.00" timeLoss="25.48" rerouteNo="0" devices="tripinfo_up_138" vType="car@up_138" speedFactor="1.00" vaporized=""/>
    <tripinfo id="up_151" depart="182.50" departLane="53o_0" departPos="4.60" departSpeed="0.00" departDelay="1.50" arrival="338.00" arrivalLane="54i_1" arrivalPos="6.00" arrivalSpeed="6.80" duration="155.50" routeLength="1015.40" waitingTime="2.00" waitingCount="1" stopTime="0.00" timeLoss="10.38" rerouteNo="0" devices="tripinfo_up_151" vType="car@up_151" speedFactor="1.00" vaporized=""/>
    <tripinfo id="down_left_160" depart="188.50" departLane="54o_0" departPos="4.60" departSpeed="0.00" departDelay="0.00" arrival="347.00" arrivalLane="51i_1" arrivalPos="6.00" arrivalSpeed="6.98" duration="158.50" routeLength="997.23" waitingTime="2.50" waitingCount="1" stopTime="0.00" timeLoss="16.00" rerouteNo="0" devices="tripinfo_down_left_160" vType="car@down_left_160" speedFactor="0.88" vaporized=""/>
    <tripinfo id="down_left_166" depart="193.50" departLane="54o_0" departPos="4.60" departSpeed="0.00" departDelay="0.00" arrival="349.00" arrivalLane="51i_1" arrivalPos="6.00" arrivalSpeed="6.96" duration="155.50" routeLength="997.23" waitingTime="1.00" waitingCount="1" stopTime="0.00" timeLoss="12.92" rerouteNo="0" devices="tripinfo_down_left_166" vType="car@down_left_166" speedFactor="1.00" vaporized=""/>
    <tripinfo id="up_154" depart="188.50" departLane="53o_0" departPos="4.60" departSpeed="0.00" departDelay="6.50" arrival="352.00" arrivalLane="54i_1" arrivalPos="6.00" arrivalSpeed="6.92" duration="163.50" routeLength="1015.40" waitingTime="4.00" waitingCount="3" stopTime="0.00" timeLoss="18.37" rerouteNo="0" devices="tripinfo_up_154" vType="car@up_154" speedFactor="1.06" vaporized=""/>
    <tripinfo id="up_right_158" depart="195.00" departLane="53o_0" departPos="4.60" departSpeed="0.00" departDelay="7.00" arrival="362.00" arrivalLane="52i_1" arrivalPos="6.00" arrivalSpeed="2.38" duration="167.00" routeLength="997.23" waitingTime="3.00" waitingCount="2" stopTime="0.00" timeLoss="24.43" rerouteNo="0" devices="tripinfo_up_right_158" vType="car@up_right_158" speedFactor="0.91" vaporized=""/>
    <tripinfo id="down_139" depart="165.50" departLane="54o_0" departPos="4.60" departSpeed="0.00" departDelay="0.00" arrival="364.00" arrivalLane="53i_1" arrivalPos="6.00" arrivalSpeed="6.98" duration="198.50" routeLength="1015.40" waitingTime="28.00" waitingCount="8" stopTime="0.00" timeLoss="53.38" rerouteNo="0" devices="tripinfo_down_139" vType="car@down_139" speedFactor="0.95" vaporized=""/>
    <tripinfo id="up_134" depart="159.00" departLane="53o_0" departPos="4.60" departSpeed="0.00" departDelay="0.50" arrival="366.50" arrivalLane="54i_1" arrivalPos="6.00" arrivalSpeed="6.91" duration="207.50" routeLength="1015.40" waitingTime="33.00" waitingCount="8" stopTime="0.00" timeLoss="62.45" rerouteNo="0" devices="tripinfo_up_134" vType="car@up_134" speedFactor="1.23" vaporized=""/>
    <tripinfo id="up_right_168" depart="208.00" departLane="53o_0" departPos="4.60" departSpeed="0.00" departDelay="12.50" arrival="370.00" arrivalLane="52i_1" arrivalPos="6.00" arrivalSpeed="2.72" duration="162.00" routeLength="997.23" waitingTime="2.50" waitingCount="2" stopTime="0.00" timeLoss="19.38" rerouteNo="0" devices="tripinfo_up_right_168" vType="car@up_right_168" speedFactor="0.98" vaporized=""/>
    <tripinfo id="down_left_175" depart="208.00" departLane="54o_0" departPos="4.60" departSpeed="0.00" departDelay="0.00" arrival="371.50" arrivalLane="51i_1" arrivalPos="6.00" arrivalSpeed="5.97" duration="163.50" routeLength="997.23" waitingTime="0.50" waitingCount="1" stopTime="0.00" timeLoss="20.86" rerouteNo="0" devices="tripinfo_down_left_175" vType="car@down_left_175" speedFactor="0.92" vaporized=""/>