<?xml version="1.0" encoding="UTF-8"?>

<!-- generated on 2021-05-25 23:11:03 by Eclipse SUMO sumo Version 1.9.2
<configuration xmlns:xsi="http://www.w3.org/2001/XMLSchema-instance" xsi:noNamespaceSchemaLocation="http://sumo.dlr.de/xsd/sumoConfiguration.xsd">

    <input>
        <net-file value="data/cross.net.xml"/>
        <route-files value="data/cross.rou.xml"/>
        <additional-files value="data/cross.det.xml"/>
    </input>

    <output>
        <tripinfo-output value="tripinfo.xml"/>
    </output>

    <time>
        <begin value="0"/>
        <step-length value=".5"/>
    </time>

    <processing>
        <collision.action value="none"/>
        <collision.mingap-factor value="0"/>
        <time-to-teleport value="-1"/>
        <time-to-teleport.highways value="-1"/>
        <time-to-teleport.disconnected value="-1"/>
    </processing>

    <report>
        <verbose value="true"/>
        <no-step-log value="true"/>
    </report>

    <traci_server>
        <remote-port value="52697"/>
    </traci_server>

    <gui_only>
        <tracker-interval value="0.5"/>
    </gui_only>

</configuration>
-->

<tripinfos xmlns:xsi="http://www.w3.org/2001/XMLSchema-instance" xsi:noNamespaceSchemaLocation="http://sumo.dlr.de/xsd/tripinfo_file.xsd">
    <tripinfo id="up_right_7" depart="4.00" departLane="53o_0" departPos="4.60" departSpeed="0.00" departDelay="0.00" arrival="154.00" arrivalLane="52i_1" arrivalPos="6.00" arrivalSpeed="2.71" duration="150.00" routeLength="997.23" waitingTime="0.00" waitingCount="0" stopTime="0.00" timeLoss="7.51" rerouteNo="0" devices="tripinfo_up_right_7" vType="car@up_right_7" speedFactor="0.89" vaporized=""/>
    <tripinfo id="down_4" depart="1.00" departLane="54o_0" departPos="4.60" departSpeed="0.00" departDelay="0.00" arrival="157.00" arrivalLane="53i_1" arrivalPos="6.00" arrivalSpeed="3.97" duration="156.00" routeLength="1015.40" waitingTime="2.00" waitingCount="1" stopTime="0.00" timeLoss="10.94" rerouteNo="0" devices="tripinfo_down_4" vType="car@down_4" speedFactor="1.03" vaporized=""/>
    <tripinfo id="up_left_8" depart="5.00" departLane="53o_0" departPos="4.60" departSpeed="0.00" departDelay="0.00" arrival="162.00" arrivalLane="51i_1" arrivalPos="6.00" arrivalSpeed="5.38" duration="157.00" routeLength="1012.71" waitingTime="2.00" waitingCount="1" stopTime="0.00" timeLoss="12.04" rerouteNo="0" devices="tripinfo_up_left_8" vType="car@up_left_8" speedFactor="0.94" vaporized=""/>
    <tripinfo id="up_2" depart="0.00" departLane="53o_0" departPos="4.60" departSpeed="0.00" departDelay="0.00" arrival="164.50" arrivalLane="54i_1" arrivalPos="6.00" arrivalSpeed="3.86" duration="164.50" routeLength="1015.40" waitingTime="0.50" waitingCount="1" stopTime="0.00" timeLoss="19.33" rerouteNo="0" devices="tripinfo_up_2" vType="car@up_2" speedFactor="1.01" vaporized=""/>
    <tripinfo id="up_right_20" depart="17.00" departLane="53o_0" departPos="4.60" departSpeed="0.00" departDelay="0.00" arrival="168.50" arrivalLane="52i_1" arrivalPos="6.00" arrivalSpeed="3.56" duration="151.50" routeLength="997.23" waitingTime="1.50" waitingCount="1" stopTime="0.00" timeLoss="8.99" rerouteNo="0" devices="tripinfo_up_right_20" vType="car@up_right_20" speedFactor="1.02" vaporized=""/>
    <tripinfo id="down_left_27" depart="23.00" departLane="54o_0" departPos="4.60" departSpeed="0.00" departDelay="0.00" arrival="173.00" arrivalLane="51i_1" arrivalPos="6.00" arrivalSpeed="2.80" duration="150.00" routeLength="997.23" waitingTime="0.00" waitingCount="0" stopTime="0.00" timeLoss="7.52" rerouteNo="0" devices="tripinfo_down_left_27" vType="car@down_left_27" speedFactor="0.95" vaporized=""/>
    <tripinfo id="down_left_28" depart="24.00" departLane="54o_0" departPos="4.60" departSpeed="0.00" departDelay="0.00" arrival="176.00" arrivalLane="51i_1" arrivalPos="6.00" arrivalSpeed="3.44" duration="152.00" routeLength="997.23" waitingTime="2.00" waitingCount="1" stopTime="0.00" timeLoss="9.54" rerouteNo="0" devices="tripinfo_down_left_28" vType="car@down_left_28" speedFactor="1.13" vaporized=""/>
    <tripinfo id="down_right_3" depart="0.00" departLane="54o_0" departPos="4.60" departSpeed="0.00" departDelay="0.00" arrival="181.00" arrivalLane="52i_1" arrivalPos="6.00" arrivalSpeed="3.41" duration="181.00" routeLength="1012.71" waitingTime="11.50" waitingCount="10" stopTime="0.00" timeLoss="36.10" rerouteNo="0" devices="tripinfo_down_right_3" vType="car@down_right_3" speedFactor="1.08" vaporized=""/>
    <tripinfo id="down_29" depart="27.00" departLane="54o_0" departPos="4.60" departSpeed="0.00" departDelay="3.00" arrival="183.50" arrivalLane="53i_1" arrivalPos="6.00" arrivalSpeed="2.97" duration="156.50" routeLength="1015.40" waitingTime="2.50" waitingCount="1" stopTime="0.00" timeLoss="11.35" rerouteNo="0" devices="tripinfo_down_29" vType="car@down_29" speedFactor="0.93" vaporized=""/>
    <tripinfo id="up_17" depart="16.00" departLane="53o_0" departPos="4.60" departSpeed="0.00" departDelay="0.00" arrival="184.00" arrivalLane="54i_1" arrivalPos="6.00" arrivalSpeed="4.10" duration="168.00" routeLength="1015.40" waitingTime="1.00" waitingCount="2" stopTime="0.00" timeLoss="22.83" rerouteNo="0" devices="tripinfo_up_17" vType="car@up_17" speedFactor="0.94" vaporized=""/>
    <tripinfo id="down_left_34" depart="33.50" departLane="54o_0" departPos="4.60" departSpeed="0.00" departDelay="7.50" arrival="187.00" arrivalLane="51i_1" arrivalPos="6.00" arrivalSpeed="2.23" duration="153.50" routeLength="997.23" waitingTime="2.50" waitingCount="1" stopTime="0.00" timeLoss="10.90" rerouteNo="0" devices="tripinfo_down_left_34" vType="car@down_left_34" speedFactor="0.99" vaporized=""/>
    <tripinfo id="down_right_10" depart="8.00" departLane="54o_0" departPos="4.60" departSpeed="0.00" departDelay="0.00" arrival="189.00" arrivalLane="52i_1" arrivalPos="6.00" arrivalSpeed="2.56" duration="181.00" routeLength="1012.71" waitingTime="14.00" waitingCount="5" stopTime="0.00" timeLoss="36.27" rerouteNo="0" devices="tripinfo_down_right_10" vType="car@down_right_10" speedFactor="1.09" vaporized=""/>
    <tripinfo id="down_left_39" depart="37.00" departLane="54o_0" departPos="4.60" departSpeed="0.00" departDelay="8.00" arrival="190.00" arrivalLane="51i_1" arrivalPos="6.00" arrivalSpeed="2.43" duration="153.00" routeLength="997.23" waitingTime="2.00" waitingCount="1" stopTime="0.00" timeLoss="10.44" rerouteNo="0" devices="tripinfo_down_left_39" vType="car@down_left_39" speedFactor="0.90" vaporized=""/>
    <tripinfo id="down_left_42" depart="40.00" departLane="54o_0" departPos="4.60" departSpeed="0.00" departDelay="6.00" arrival="193.00" arrivalLane="51i_1" arrivalPos="6.00" arrivalSpeed="2.20" duration="153.00" routeLength="997.23" waitingTime="2.50" waitingCount="1" stopTime="0.00" timeLoss="10.40" rerouteNo="0" devices="tripinfo_down_left_42" vType="car@down_left_42" speedFactor="1.09" vaporized=""/>
    <tripinfo id="up_37" depart="36.00" departLane="53o_0" departPos="4.60" departSpeed="0.00" departDelay="8.00" arrival="194.50" arrivalLane="54i_1" arrivalPos="6.00" arrivalSpeed="3.77" duration="158.50" routeLength="1015.40" waitingTime="2.50" waitingCount="1" stopTime="0.00" timeLoss="13.37" rerouteNo="0" devices="tripinfo_up_37" vType="car@up_37" speedFactor="1.18" vaporized=""/>
    <tripinfo id="down_left_50" depart="46.50" departLane="54o_0" departPos="4.60" departSpeed="0.00" departDelay="8.50" arrival="198.50" arrivalLane="51i_1" arrivalPos="6.00" arrivalSpeed="6.84" duration="152.00" routeLength="997.23" waitingTime="2.50" waitingCount="1" stopTime="0.00" timeLoss="9.26" rerouteNo="0" devices="tripinfo_down_left_50" vType="car@down_left_50" speedFactor="0.85" vaporized=""/>
    <tripinfo id="up_right_47" depart="42.50" departLane="53o_0" departPos="4.60" departSpeed="0.00" departDelay="5.50" arrival="199.50" arrivalLane="52i_1" arrivalPos="6.00" arrivalSpeed="2.56" duration="157.00" routeLength="997.23" waitingTime="2.50" waitingCount="1" stopTime="0.00" timeLoss="14.48" rerouteNo="0" devices="tripinfo_up_right_47" vType="car@up_right_47" speedFactor="0.90" vaporized=""/>
    <tripinfo id="down_43" depart="43.50" departLane="54o_0" departPos="4.60" departSpeed="0.00" departDelay="9.50" arrival="202.00" arrivalLane="53i_1" arrivalPos="6.00" arrivalSpeed="2.84" duration="158.50" routeLength="1015.40" waitingTime="2.00" waitingCount="1" stopTime="0.00" timeLoss="13.29" rerouteNo="0" devices="tripinfo_down_43" vType="car@down_43" speedFactor="1.04" vaporized=""/>
    <tripinfo id="down_left_51" depart="49.50" departLane="54o_0" departPos="4.60" departSpeed="0.00" departDelay="10.50" arrival="202.00" arrivalLane="51i_1" arrivalPos="6.00" arrivalSpeed="6.87" duration="152.50" routeLength="997.23" waitingTime="2.50" waitingCount="1" stopTime="0.00" timeLoss="9.58" rerouteNo="0" devices="tripinfo_down_left_51" vType="car@down_left_51" speedFactor="1.17" vaporized=""/>
    <tripinfo id="down_left_54" depart="53.00" departLane="54o_0" departPos="4.60" departSpeed="0.00" departDelay="11.00" arrival="205.50" arrivalLane="51i_1" arrivalPos="6.00" arrivalSpeed="6.82" duration="152.50" routeLength="997.23" waitingTime="2.50" waitingCount="1" stopTime="0.00" timeLoss="9.77" rerouteNo="0" devices="tripinfo_down_left_54" vType="car@down_left_54" speedFactor="1.00" vaporized=""/>
    <tripinfo id="down_left_56" depart="56.00" departLane="54o_0" departPos="4.60" departSpeed="0.00" departDelay="11.00" arrival="208.50" arrivalLane="51i_1" arrivalPos="6.00" arrivalSpeed="6.78" duration="152.50" routeLength="997.23" waitingTime="3.00" waitingCount="1" stopTime="0.00" timeLoss="9.82" rerouteNo="0" devices="tripinfo_down_left_56" vType="car@down_left_56" speedFactor="0.90" vaporized=""/>
    <tripinfo id="up_22" depart="23.00" departLane="53o_0" departPos="4.60" departSpeed="0.00" departDelay="4.00" arrival="220.00" arrivalLane="54i_1" arrivalPos="6.00" arrivalSpeed="3.44" duration="197.00" routeLength="1015.40" waitingTime="19.50" waitingCount="12" stopTime="0.00" timeLoss="51.89" rerouteNo="0" devices="tripinfo_up_22" vType="car@up_22" speedFactor="0.98" vaporized=""/>
    <tripinfo id="down_left_63" depart="69.00" departLane="54o_0" departPos="4.60" departSpeed="0.00" departDelay="18.00" arrival="222.00" arrivalLane="51i_1" arrivalPos="6.00" arrivalSpeed="3.39" duration="153.00" routeLength="997.23" waitingTime="2.50" waitingCount="1" stopTime="0.00" timeLoss="10.32" rerouteNo="0" devices="tripinfo_down_left_63" vType="car@down_left_63" speedFactor="0.99" vaporized=""/>
    <tripinfo id="down_left_66" depart="72.00" departLane="54o_0" departPos="4.60" departSpeed="0.00" departDelay="20.00" arrival="225.00" arrivalLane="51i_1" arrivalPos="6.00" arrivalSpeed="2.74" duration="153.00" routeLength="997.23" waitingTime="2.50" waitingCount="1" stopTime="0.00" timeLoss="10.52" rerouteNo="0" devices="tripinfo_down_left_66" vType="car@down_left_66" speedFactor="0.91" vaporized=""/>
    <tripinfo id="up_61" depart="52.00" departLane="53o_0" departPos="4.60" departSpeed="0.00" departDelay="2.00" arrival="226.00" arrivalLane="54i_1" arrivalPos="6.00" arrivalSpeed="3.60" duration="174.00" routeLength="1015.40" waitingTime="6.00" waitingCount="7" stopTime="0.00" timeLoss="28.86" rerouteNo="0" devices="tripinfo_up_61" vType="car@up_61" speedFactor="1.12" vaporized=""/>
    <tripinfo id="down_left_67" depart="75.50" departLane="54o_0" departPos="4.60" departSpeed="0.00" departDelay="22.50" arrival="228.50" arrivalLane="51i_1" arrivalPos="6.00" arrivalSpeed="3.47" duration="153.00" routeLength="997.23" waitingTime="2.50" waitingCount="1" stopTime="0.00" timeLoss="10.32" rerouteNo="0" devices="tripinfo_down_left_67" vType="car@down_left_67" speedFactor="0.91" vaporized=""/>
    <tripinfo id="down_left_68" depart="78.50" departLane="54o_0" departPos="4.60" departSpeed="0.00" departDelay="23.50" arrival="231.50" arrivalLane="51i_1" arrivalPos="6.00" arrivalSpeed="2.24" duration="153.00" routeLength="997.23" waitingTime="2.50" waitingCount="1" stopTime="0.00" timeLoss="10.41" rerouteNo="0" devices="tripinfo_down_left_68" vType="car@down_left_68" speedFactor="1.04" vaporized=""/>
    <tripinfo id="up_25" depart="26.00" departLane="53o_0" departPos="4.60" departSpeed="0.00" departDelay="3.00" arrival="232.00" arrivalLane="54i_1" arrivalPos="6.00" arrivalSpeed="3.92" duration="206.00" routeLength="1015.40" waitingTime="26.00" waitingCount="13" stopTime="0.00" timeLoss="60.81" rerouteNo="0" devices="tripinfo_up_25" vType="car@up_25" speedFactor="0.87" vaporized=""/>
    <tripinfo id="down_57" depart="59.50" departLane="54o_0" departPos="4.60" departSpeed="0.00" departDelay="13.50" arrival="233.50" arrivalLane="53i_1" arrivalPos="6.00" arrivalSpeed="3.26" duration="174.00" routeLength="1015.40" waitingTime="7.00" waitingCount="8" stopTime="0.00" timeLoss="28.74" rerouteNo="0" devices="tripinfo_down_57" vType="car@down_57" speedFactor="1.14" vaporized=""/>
    <tripinfo id="up_left_21" depart="19.50" departLane="53o_0" departPos="4.60" departSpeed="0.00" departDelay="1.50" arrival="236.00" arrivalLane="51i_1" arrivalPos="6.00" arrivalSpeed="3.05" duration="216.50" routeLength="1012.71" waitingTime="55.50" waitingCount="5" stopTime="0.00" timeLoss="71.69" rerouteNo="0" devices="tripinfo_up_left_21" vType="car@up_left_21" speedFactor="1.01" vaporized=""/>
    <tripinfo id="up_65" depart="55.50" departLane="53o_0" departPos="4.60" departSpeed="0.00" departDelay="3.50" arrival="238.50" arrivalLane="54i_1" arrivalPos="6.00" arrivalSpeed="4.10" duration="183.00" routeLength="1015.40" waitingTime="5.00" waitingCount="6" stopTime="0.00" timeLoss="37.84" rerouteNo="0" devices="tripinfo_up_65" vType="car@up_65" speedFactor="0.88" vaporized=""/>
    <tripinfo id="up_right_75" depart="61.50" departLane="53o_0" departPos="4.60" departSpeed="0.00" departDelay="0.50" arrival="245.00" arrivalLane="52i_1" arrivalPos="6.00" arrivalSpeed="2.72" duration="183.50" routeLength="997.23" waitingTime="7.50" waitingCount="3" stopTime="0.00" timeLoss="40.87" rerouteNo="0" devices="tripinfo_up_right_75" vType="car@up_right_75" speedFactor="0.98" vaporized=""/>
    <tripinfo id="up_right_80" depart="68.00" departLane="53o_0" departPos="4.60" departSpeed="0.00" departDelay="3.00" arrival="247.50" arrivalLane="52i_1" arrivalPos="6.00" arrivalSpeed="4.57" duration="179.50" routeLength="997.23" waitingTime="5.50" waitingCount="2" stopTime="0.00" timeLoss="37.03" rerouteNo="0" devices="tripinfo_up_right_80" vType="car@up_right_80" speedFactor="1.03" vaporized=""/>
    <tripinfo id="down_69" depart="82.00" departLane="54o_0" departPos="4.60" departSpeed="0.00" departDelay="27.00" arrival="250.00" arrivalLane="53i_1" arrivalPos="6.00" arrivalSpeed="4.56" duration="168.00" routeLength="1015.40" waitingTime="3.50" waitingCount="4" stopTime="0.00" timeLoss="22.92" rerouteNo="0" devices="tripinfo_down_69" vType="car@down_69" speedFactor="1.02" vaporized=""/>
    <tripinfo id="up_right_88" depart="77.50" departLane="53o_0" departPos="4.60" departSpeed="0.00" departDelay="6.50" arrival="250.50" arrivalLane="52i_1" arrivalPos="6.00" arrivalSpeed="3.24" duration="173.00" routeLength="997.23" waitingTime="4.50" waitingCount="2" stopTime="0.00" timeLoss="30.33" rerouteNo="0" devices="tripinfo_up_right_88" vType="car@up_right_88" speedFactor="1.01" vaporized=""/>
    <tripinfo id="down_82" depart="97.50" departLane="54o_0" departPos="4.60" departSpeed="0.00" departDelay="32.50" arrival="253.00" arrivalLane="53i_1" arrivalPos="6.00" arrivalSpeed="3.81" duration="155.50" routeLength="1015.40" waitingTime="2.00" waitingCount="1" stopTime="0.00" timeLoss="10.28" rerouteNo="0" devices="tripinfo_down_82" vType="car@down_82" speedFactor="1.02" vaporized=""/>
    <tripinfo id="down_left_85" depart="100.50" departLane="54o_0" departPos="4.60" departSpeed="0.00" departDelay="31.50" arrival="253.50" arrivalLane="51i_1" arrivalPos="6.00" arrivalSpeed="2.79" duration="153.00" routeLength="997.23" waitingTime="2.50" waitingCount="1" stopTime="0.00" timeLoss="10.53" rerouteNo="0" devices="tripinfo_down_left_85" vType="car@down_left_85" speedFactor="0.98" vaporized=""/>
    <tripinfo id="up_right_106" depart="90.50" departLane="53o_0" departPos="4.60" departSpeed="0.00" departDelay="2.50" arrival="253.50" arrivalLane="52i_1" arrivalPos="6.00" arrivalSpeed="2.77" duration="163.00" routeLength="997.23" waitingTime="2.50" waitingCount="1" stopTime="0.00" timeLoss="20.52" rerouteNo="0" devices="tripinfo_up_right_106" vType="car@up_right_106" speedFactor="1.01" vaporized=""/>
    <tripinfo id="up_70" depart="58.50" departLane="53o_0" departPos="4.60" departSpeed="0.00" departDelay="2.50" arrival="256.50" arrivalLane="54i_1" arrivalPos="6.00" arrivalSpeed="2.64" duration="198.00" routeLength="1015.40" waitingTime="7.50" waitingCount="10" stopTime="0.00" timeLoss="52.90" rerouteNo="0" devices="tripinfo_up_70" vType="car@up_70" speedFactor="1.02" vaporized=""/>
    <tripinfo id="down_left_92" depart="107.00" departLane="54o_0" departPos="4.60" departSpeed="0.00" departDelay="32.00" arrival="259.50" arrivalLane="51i_1" arrivalPos="6.00" arrivalSpeed="2.39" duration="152.50" routeLength="997.23" waitingTime="2.00" waitingCount="1" stopTime="0.00" timeLoss="9.94" rerouteNo="0" devices="tripinfo_down_left_92" vType="car@down_left_92" speedFactor="0.83" vaporized=""/>
    <tripinfo id="down_left_94" depart="110.00" departLane="54o_0" departPos="4.60" departSpeed="0.00" departDelay="34.00" arrival="262.50" arrivalLane="51i_1" arrivalPos="6.00" arrivalSpeed="2.32" duration="152.50" routeLength="997.23" waitingTime="2.00" waitingCount="1" stopTime="0.00" timeLoss="9.92" rerouteNo="0" devices="tripinfo_down_left_94" vType="car@down_left_94" speedFactor="1.09" vaporized=""/>
    <tripinfo id="down_left_97" depart="113.00" departLane="54o_0" departPos="4.60" departSpeed="0.00" departDelay="33.00" arrival="265.50" arrivalLane="51i_1" arrivalPos="6.00" arrivalSpeed="2.72" duration="152.50" routeLength="997.23" waitingTime="2.50" waitingCount="1" stopTime="0.00" timeLoss="9.94" rerouteNo="0" devices="tripinfo_down_left_97" vType="car@down_left_97" speedFactor="0.91" vaporized=""/>
    <tripinfo id="down_right_11" depart="9.00" departLane="54o_0" departPos="4.60" departSpeed="0.00" departDelay="0.00" arrival="266.00" arrivalLane="52i_1" arrivalPos="6.00" arrivalSpeed="2.43" duration="257.00" routeLength="1012.71" waitingTime="76.50" waitingCount="7" stopTime="0.00" timeLoss="112.24" rerouteNo="0" devices="tripinfo_down_right_11" vType="car@down_right_11" speedFactor="1.03" vaporized=""/>
    <tripinfo id="down_86" depart="103.50" departLane="54o_0" departPos="4.60" departSpeed="0.00" departDelay="33.50" arrival="266.00" arrivalLane="53i_1" arrivalPos="6.00" arrivalSpeed="3.42" duration="162.50" routeLength="1015.40" waitingTime="2.50" waitingCount="1" stopTime="0.00" timeLoss="17.24" rerouteNo="0" devices="tripinfo_down_86" vType="car@down_86" speedFactor="1.00" vaporized=""/>
    <tripinfo id="down_left_112" depart="122.50" departLane="54o_0" departPos="4.60" departSpeed="0.00" departDelay="27.50" arrival="282.50" arrivalLane="51i_1" arrivalPos="6.00" arrivalSpeed="2.47" duration="160.00" routeLength="997.23" waitingTime="2.00" waitingCount="1" stopTime="0.00" timeLoss="17.45" rerouteNo="0" devices="tripinfo_down_left_112" vType="car@down_left_112" speedFactor="1.10" vaporized=""/>
    <tripinfo id="right_up_6" depart="4.00" departLane="51o_0" departPos="4.60" departSpeed="0.00" departDelay="0.00" arrival="284.50" arrivalLane="54i_1" arrivalPos="6.00" arrivalSpeed="2.24" duration="280.50" routeLength="1012.71" waitingTime="109.50" waitingCount="4" stopTime="0.00" timeLoss="135.69" rerouteNo="0" devices="tripinfo_right_up_6" vType="car@right_up_6" speedFactor="1.05" vaporized=""/>
    <tripinfo id="up_115" depart="97.00" departLane="53o_0" departPos="4.60" departSpeed="0.00" departDelay="0.00" arrival="286.50" arrivalLane="54i_1" arrivalPos="6.00" arrivalSpeed="4.22" duration="189.50" routeLength="1015.40" waitingTime="13.50" waitingCount="7" stopTime="0.00" timeLoss="44.41" rerouteNo="0" devices="tripinfo_up_115" vType="car@up_115" speedFactor="0.92" vaporized=""/>
    <tripinfo id="down_left_128" depart="128.50" departLane="54o_0" departPos="4.60" departSpeed="0.00" departDelay="20.50" arrival="287.50" arrivalLane="51i_1" arrivalPos="6.00" arrivalSpeed="3.71" duration="159.00" routeLength="997.23" waitingTime="2.50" waitingCount="1" stopTime="0.00" timeLoss="16.45" rerouteNo="0" devices="tripinfo_down_left_128" vType="car@down_left_128" speedFactor="1.12" vaporized=""/>
    <tripinfo id="down_left_131" depart="132.00" departLane="54o_0" departPos="4.60" departSpeed="0.00" departDelay="19.00" arrival="292.00" arrivalLane="51i_1" arrivalPos="6.00" arrivalSpeed="2.90" duration="160.00" routeLength="997.23" waitingTime="2.00" waitingCount="1" stopTime="0.00" timeLoss="17.55" rerouteNo="0" devices="tripinfo_down_left_131" vType="car@down_left_131" speedFactor="1.07" vaporized=""/>
    <tripinfo id="down_left_138" depart="135.00" departLane="54o_0" departPos="4.60" departSpeed="0.00" departDelay="16.00" arrival="294.00" arrivalLane="51i_1" arrivalPos="6.00" arrivalSpeed="4.08" duration="159.00" routeLength="997.23" waitingTime="2.00" waitingCount="1" stopTime="0.00" timeLoss="16.54" rerouteNo="0" devices="tripinfo_down_left_138" vType="car@down_left_138" speedFactor="1.00" vaporized=""/>
    <tripinfo id="up_right_127" depart="110.50" departLane="53o_0" departPos="4.60" departSpeed="0.00" departDelay="2.50" arrival="296.00" arrivalLane="52i_1" arrivalPos="6.00" arrivalSpeed="3.90" duration="185.50" routeLength="997.23" waitingTime="5.00" waitingCount="4" stopTime="0.00" timeLoss="42.92" rerouteNo="0" devices="tripinfo_up_right_127" vType="car@up_right_127" speedFactor="0.82" vaporized=""/>
    <tripinfo id="up_122" depart="103.50" departLane="53o_0" departPos="4.60" departSpeed="0.00" departDelay="0.50" arrival="297.50" arrivalLane="54i_1" arrivalPos="6.00" arrivalSpeed="2.27" duration="194.00" routeLength="1015.40" waitingTime="17.50" waitingCount="12" stopTime="0.00" timeLoss="48.82" rerouteNo="0" devices="tripinfo_up_122" vType="car@up_122" speedFactor="1.03" vaporized=""/>
    <tripinfo id="down_73" depart="88.00" departLane="54o_0" departPos="4.60" departSpeed="0.00" departDelay="30.00" arrival="298.00" arrivalLane="53i_1" arrivalPos="6.00" arrivalSpeed="2.61" duration="210.00" routeLength="1015.40" waitingTime="36.50" waitingCount="13" stopTime="0.00" timeLoss="64.89" rerouteNo="0" devices="tripinfo_down_73" vType="car@down_73" speedFactor="1.06" vaporized=""/>
    <tripinfo id="up_left_26" depart="29.50" departLane="53o_0" departPos="4.60" departSpeed="0.00" departDelay="6.50" arrival="304.50" arrivalLane="51i_1" arrivalPos="6.00" arrivalSpeed="6.77" duration="275.00" routeLength="1012.71" waitingTime="90.00" waitingCount="11" stopTime="0.00" timeLoss="130.10" rerouteNo="0" devices="tripinfo_up_left_26" vType="car@up_left_26" speedFactor="0.92" vaporized=""/>
    <tripinfo id="up_126" depart="108.00" departLane="53o_0" departPos="4.60" departSpeed="0.00" departDelay="0.00" arrival="306.00" arrivalLane="54i_1" arrivalPos="6.00" arrivalSpeed="2.31" duration="198.00" routeLength="1015.40" waitingTime="13.50" waitingCount="13" stopTime="0.00" timeLoss="52.82" rerouteNo="0" devices="tripinfo_up_126" vType="car@up_126" speedFactor="1.03" vaporized=""/>
    <tripinfo id="down_left_147" depart="144.50" departLane="54o_0" departPos="4.60" departSpeed="0.00" departDelay="19.50" arrival="307.50" arrivalLane="51i_1" arrivalPos="6.00" arrivalSpeed="3.31" duration="163.00" routeLength="997.23" waitingTime="3.00" waitingCount="2" stopTime="0.00" timeLoss="20.39" rerouteNo="0" devices="tripinfo_down_left_147" vType="car@down_left_147" speedFactor="1.00" vaporized=""/>
    <tripinfo id="down_left_151" depart="151.00" departLane="54o_0" departPos="4.60" departSpeed="0.00" departDelay="24.00" arrival="310.50" arrivalLane="51i_1" arrivalPos="6.00" arrivalSpeed="6.84" duration="159.50" routeLength="997.23" waitingTime="2.50" waitingCount="1" stopTime="0.00" timeLoss="16.93" rerouteNo="0" devices="tripinfo_down_left_151" vType="car@down_left_151" speedFactor="1.00" vaporized=""/>
    <tripinfo id="down_left_162" depart="164.00" departLane="54o_0" departPos="4.60" departSpeed="0.00" departDelay="27.00" arrival="317.00" arrivalLane="51i_1" arrivalPos="6.00" arrivalSpeed="3.97" duration="153.00" routeLength="997.23" waitingTime="2.50" waitingCount="1" stopTime="0.00" timeLoss="10.34" rerouteNo="0" devices="tripinfo_down_left_162" vType="car@down_left_162" speedFactor="0.99" vaporized=""/>
    <tripinfo id="down_145" depart="141.50" departLane="54o_0" departPos="4.60" departSpeed="0.00" departDelay="18.50" arrival="318.00" arrivalLane="53i_1" arrivalPos="6.00" arrivalSpeed="4.23" duration="176.50" routeLength="1015.40" waitingTime="6.50" waitingCount="4" stopTime="0.00" timeLoss="31.41" rerouteNo="0" devices="tripinfo_down_145" vType="car@down_145" speedFactor="1.14" vaporized=""/>
    <tripinfo id="down_164" depart="167.50" departLane="54o_0" departPos="4.60" departSpeed="0.00" departDelay="29.50" arrival="324.50" arrivalLane="53i_1" arrivalPos="6.00" arrivalSpeed="3.85" duration="157.00" routeLength="1015.40" waitingTime="2.50" waitingCount="1" stopTime="0.00" timeLoss="11.94" rerouteNo="0" devices="tripinfo_down_164" vType="car@down_164" speedFactor="1.05" vaporized=""/>
    <tripinfo id="down_left_173" depart="174.00" departLane="54o_0" departPos="4.60" departSpeed="0.00" departDelay="30.00" arrival="327.50" arrivalLane="51i_1" arrivalPos="6.00" arrivalSpeed="2.60" duration="153.50" routeLength="997.23" waitingTime="2.50" waitingCount="1" stopTime="0.00" timeLoss="10.99" rerouteNo="0" devices="tripinfo_down_left_173" vType="car@down_left_173" speedFactor="1.14" vaporized=""/>
    <tripinfo id="down_157" depart="154.50" departLane="54o_0" departPos="4.60" departSpeed="0.00" departDelay="24.50" arrival="329.50" arrivalLane="53i_1" arrivalPos="6.00" arrivalSpeed="2.31" duration="175.00" routeLength="1015.40" waitingTime="15.00" waitingCount="2" stopTime="0.00" timeLoss="29.83" rerouteNo="0" devices="tripinfo_down_157" vType="car@down_157" speedFactor="1.08" vaporized=""/>
    <tripinfo id="down_left_176" depart="177.00" departLane="54o_0" departPos="4.60" departSpeed="0.00" departDelay="32.00" arrival="329.50" arrivalLane="51i_1" arrivalPos="6.00" arrivalSpeed="6.47" duration="152.50" routeLength="997.23" waitingTime="2.50" waitingCount="1" stopTime="0.00" timeLoss="9.86" rerouteNo="0" devices="tripinfo_down_left_176" vType="car@down_left_176" speedFactor="1.09" vaporized=""/>
    <tripinfo id="up_right_135" depart="120.00" departLane="53o_0" departPos="4.60" departSpeed="0.00" departDelay="5.00" arrival="332.00" arrivalLane="52i_1" arrivalPos="6.00" arrivalSpeed="2.75" duration="212.00" routeLength="997.23" waitingTime="7.00" waitingCount="8" stopTime="0.00" timeLoss="69.37" rerouteNo="0" devices="tripinfo_up_right_135" vType="car@up_right_135" speedFactor="1.01" vaporized=""/>
    <tripinfo id="up_right_143" depart="130.00" departLane="53o_0" departPos="4.60" departSpeed="0.00" departDelay="7.00" arrival="336.00" arrivalLane="52i_1" arrivalPos="6.00" arrivalSpeed="3.36" duration="206.00" routeLength="997.23" waitingTime="2.50" waitingCount="2" stopTime="0.00" timeLoss="63.54" rerouteNo="0" devices="tripinfo_up_right_143" vType="car@up_right_143" speedFactor="1.13" vaporized=""/>
    <tripinfo id="up_113" depart="96.00" departLane="53o_0" departPos="4.60" departSpeed="0.00" departDelay="0.00" arrival="337.00" arrivalLane="54i_1" arrivalPos="6.00" arrivalSpeed="2.82" duration="241.00" routeLength="1015.40" waitingTime="29.00" waitingCount="22" stopTime="0.00" timeLoss="95.84" rerouteNo="0" devices="tripinfo_up_113" vType="car@up_113" speedFactor="1.01" vaporized=""/>
    <tripinfo id="down_178" depart="180.50" departLane="54o_0" departPos="4.60" departSpeed="0.00" departDelay="34.50" arrival="337.00" arrivalLane="53i_1" arrivalPos="6.00" arrivalSpeed="4.11" duration="156.50" routeLength="1015.40" waitingTime="2.00" waitingCount="1" stopTime="0.00" timeLoss="11.38" rerouteNo="0" devices="tripinfo_down_178" vType="car@down_178" speedFactor="1.08" vaporized=""/>
    <tripinfo id="up_134" depart="117.00" departLane="53o_0" departPos="4.60" departSpeed="0.00" departDelay="2.00" arrival="341.50" arrivalLane="54i_1" arrivalPos="6.00" arrivalSpeed="2.69" duration="224.50" routeLength="1015.40" waitingTime="12.00" waitingCount="13" stopTime="0.00" timeLoss="79.41" rerouteNo="0" devices="tripinfo_up_134" vType="car@up_134" speedFactor="1.23" vaporized=""/>
    <tripinfo id="up_right_171" depart="146.00" departLane="53o_0" departPos="4.60" departSpeed="0.00" departDelay="2.00" arrival="348.50" arrivalLane="52i_1" arrivalPos="6.00" arrivalSpeed="3.22" duration="202.50" routeLength="997.23" waitingTime="5.50" waitingCount="2" stopTime="0.00" timeLoss="59.90" rerouteNo="0" devices="tripinfo_up_right_171" vType="car@up_right_171" speedFactor="0.90" vaporized=""/>
    <tripinfo id="up_160" depart="139.50" departLane="53o_0" departPos="4.60" departSpeed="0.00" departDelay="4.50" arrival="349.50" arrivalLane="54i_1" arrivalPos="6.00" arrivalSpeed="3.82" duration="210.00" routeLength="1015.40" waitingTime="2.50" waitingCount="1" stopTime="0.00" timeLoss="64.95" rerouteNo="0" devices="tripinfo_up_160" vType="car@up_160" speedFactor="0.88" vaporized=""/>
    <tripinfo id="down_left_181" depart="186.50" departLane="54o_0" departPos="4.60" departSpeed="0.00" departDelay="37.50" arrival="350.00" arrivalLane="51i_1" arrivalPos="6.00" arrivalSpeed="4.39" duration="163.50" routeLength="997.23" waitingTime="3.00" waitingCount="2" stopTime="0.00" timeLoss="21.02" rerouteNo="0" devices="tripinfo_down_left_181" vType="car@down_left_181" speedFactor="1.03" vaporized=""/>