<?xml version="1.0" encoding="UTF-8"?>

<!-- generated on 21 ماي, 2021 09:08:22 م by Eclipse SUMO GUI Version v1_8_0+0922-7b2bbb9a60
<configuration xmlns:xsi="http://www.w3.org/2001/XMLSchema-instance" xsi:noNamespaceSchemaLocation="http://sumo.dlr.de/xsd/sumoConfiguration.xsd">

    <input>
        <net-file value="data/cross.net.xml"/>
        <route-files value="data/cross.rou.xml"/>
        <additional-files value="data/cross.det.xml"/>
    </input>

    <output>
        <tripinfo-output value="tripinfo.xml"/>
    </output>

    <time>
        <begin value="0"/>
        <step-length value=".5"/>
    </time>

    <report>
        <verbose value="true"/>
        <no-step-log value="true"/>
    </report>

    <traci_server>
        <remote-port value="49731"/>
    </traci_server>

    <gui_only>
        <tracker-interval value="0.5"/>
    </gui_only>

</configuration>
-->

<tripinfos xmlns:xsi="http://www.w3.org/2001/XMLSchema-instance" xsi:noNamespaceSchemaLocation="http://sumo.dlr.de/xsd/tripinfo_file.xsd">
    <tripinfo id="up_2" depart="0.00" departLane="53o_0" departPos="4.60" departSpeed="0.00" departDelay="0.00" arrival="152.50" arrivalLane="54i_1" arrivalPos="6.00" arrivalSpeed="4.03" duration="152.50" routeLength="1015.40" waitingTime="0.00" waitingCount="0" stopTime="0.00" timeLoss="7.30" rerouteNo="0" devices="tripinfo_up_2" vType="car@up_2" speedFactor="1.01" vaporized=""/>
    <tripinfo id="up_right_7" depart="4.00" departLane="53o_0" departPos="4.60" departSpeed="0.00" departDelay="0.00" arrival="154.00" arrivalLane="52i_1" arrivalPos="6.00" arrivalSpeed="3.36" duration="150.00" routeLength="997.23" waitingTime="0.00" waitingCount="0" stopTime="0.00" timeLoss="7.36" rerouteNo="0" devices="tripinfo_up_right_7" vType="car@up_right_7" speedFactor="0.89" vaporized=""/>
    <tripinfo id="down_4" depart="1.00" departLane="54o_0" departPos="4.60" departSpeed="0.00" departDelay="0.00" arrival="156.00" arrivalLane="53i_1" arrivalPos="6.00" arrivalSpeed="2.86" duration="155.00" routeLength="1015.40" waitingTime="1.50" waitingCount="1" stopTime="0.00" timeLoss="9.78" rerouteNo="0" devices="tripinfo_down_4" vType="car@down_4" speedFactor="1.03" vaporized=""/>
    <tripinfo id="up_left_8" depart="5.00" departLane="53o_0" departPos="4.60" departSpeed="0.00" departDelay="0.00" arrival="159.50" arrivalLane="51i_1" arrivalPos="6.00" arrivalSpeed="6.86" duration="154.50" routeLength="1012.71" waitingTime="1.50" waitingCount="1" stopTime="0.00" timeLoss="9.49" rerouteNo="0" devices="tripinfo_up_left_8" vType="car@up_left_8" speedFactor="0.94" vaporized=""/>
    <tripinfo id="down_right_3" depart="0.00" departLane="54o_0" departPos="4.60" departSpeed="0.00" departDelay="0.00" arrival="160.00" arrivalLane="52i_1" arrivalPos="6.00" arrivalSpeed="3.92" duration="160.00" routeLength="1012.71" waitingTime="2.50" waitingCount="1" stopTime="0.00" timeLoss="15.14" rerouteNo="0" devices="tripinfo_down_right_3" vType="car@down_right_3" speedFactor="1.08" vaporized=""/>
    <tripinfo id="down_right_10" depart="8.00" departLane="54o_0" departPos="4.60" departSpeed="0.00" departDelay="0.00" arrival="162.50" arrivalLane="52i_1" arrivalPos="6.00" arrivalSpeed="2.53" duration="154.50" routeLength="1012.71" waitingTime="0.00" waitingCount="0" stopTime="0.00" timeLoss="9.69" rerouteNo="0" devices="tripinfo_down_right_10" vType="car@down_right_10" speedFactor="1.09" vaporized=""/>
    <tripinfo id="up_17" depart="16.00" departLane="53o_0" departPos="4.60" departSpeed="0.00" departDelay="0.00" arrival="168.00" arrivalLane="54i_1" arrivalPos="6.00" arrivalSpeed="4.51" duration="152.00" routeLength="1015.40" waitingTime="0.00" waitingCount="0" stopTime="0.00" timeLoss="6.93" rerouteNo="0" devices="tripinfo_up_17" vType="car@up_17" speedFactor="0.94" vaporized=""/>
    <tripinfo id="up_right_20" depart="17.00" departLane="53o_0" departPos="4.60" departSpeed="0.00" departDelay="0.00" arrival="168.50" arrivalLane="52i_1" arrivalPos="6.00" arrivalSpeed="2.69" duration="151.50" routeLength="997.23" waitingTime="1.50" waitingCount="1" stopTime="0.00" timeLoss="8.93" rerouteNo="0" devices="tripinfo_up_right_20" vType="car@up_right_20" speedFactor="1.02" vaporized=""/>
    <tripinfo id="down_left_27" depart="23.00" departLane="54o_0" departPos="4.60" departSpeed="0.00" departDelay="0.00" arrival="173.50" arrivalLane="51i_1" arrivalPos="6.00" arrivalSpeed="3.99" duration="150.50" routeLength="997.23" waitingTime="0.00" waitingCount="0" stopTime="0.00" timeLoss="7.83" rerouteNo="0" devices="tripinfo_down_left_27" vType="car@down_left_27" speedFactor="0.95" vaporized=""/>
    <tripinfo id="down_left_28" depart="24.00" departLane="54o_0" departPos="4.60" departSpeed="0.00" departDelay="0.00" arrival="176.50" arrivalLane="51i_1" arrivalPos="6.00" arrivalSpeed="2.63" duration="152.50" routeLength="997.23" waitingTime="2.00" waitingCount="1" stopTime="0.00" timeLoss="9.92" rerouteNo="0" devices="tripinfo_down_left_28" vType="car@down_left_28" speedFactor="1.13" vaporized=""/>
    <tripinfo id="up_22" depart="22.50" departLane="53o_0" departPos="4.60" departSpeed="0.00" departDelay="3.50" arrival="177.00" arrivalLane="54i_1" arrivalPos="6.00" arrivalSpeed="3.67" duration="154.50" routeLength="1015.40" waitingTime="2.00" waitingCount="1" stopTime="0.00" timeLoss="9.28" rerouteNo="0" devices="tripinfo_up_22" vType="car@up_22" speedFactor="0.98" vaporized=""/>
    <tripinfo id="up_25" depart="25.50" departLane="53o_0" departPos="4.60" departSpeed="0.00" departDelay="2.50" arrival="180.00" arrivalLane="54i_1" arrivalPos="6.00" arrivalSpeed="3.78" duration="154.50" routeLength="1015.40" waitingTime="2.00" waitingCount="1" stopTime="0.00" timeLoss="9.35" rerouteNo="0" devices="tripinfo_up_25" vType="car@up_25" speedFactor="0.87" vaporized=""/>
    <tripinfo id="down_29" depart="26.50" departLane="54o_0" departPos="4.60" departSpeed="0.00" departDelay="2.50" arrival="182.00" arrivalLane="53i_1" arrivalPos="6.00" arrivalSpeed="4.07" duration="155.50" routeLength="1015.40" waitingTime="2.50" waitingCount="1" stopTime="0.00" timeLoss="10.31" rerouteNo="0" devices="tripinfo_down_29" vType="car@down_29" speedFactor="0.93" vaporized=""/>
    <tripinfo id="down_left_34" depart="33.00" departLane="54o_0" departPos="4.60" departSpeed="0.00" departDelay="7.00" arrival="185.50" arrivalLane="51i_1" arrivalPos="6.00" arrivalSpeed="2.47" duration="152.50" routeLength="997.23" waitingTime="2.00" waitingCount="1" stopTime="0.00" timeLoss="9.89" rerouteNo="0" devices="tripinfo_down_left_34" vType="car@down_left_34" speedFactor="0.99" vaporized=""/>
    <tripinfo id="down_right_11" depart="9.00" departLane="54o_0" departPos="4.60" departSpeed="0.00" departDelay="0.00" arrival="186.00" arrivalLane="52i_1" arrivalPos="6.00" arrivalSpeed="2.46" duration="177.00" routeLength="1012.71" waitingTime="18.50" waitingCount="2" stopTime="0.00" timeLoss="32.17" rerouteNo="0" devices="tripinfo_down_right_11" vType="car@down_right_11" speedFactor="1.03" vaporized=""/>
    <tripinfo id="down_left_39" depart="36.00" departLane="54o_0" departPos="4.60" departSpeed="0.00" departDelay="7.00" arrival="188.50" arrivalLane="51i_1" arrivalPos="6.00" arrivalSpeed="2.94" duration="152.50" routeLength="997.23" waitingTime="2.00" waitingCount="1" stopTime="0.00" timeLoss="9.99" rerouteNo="0" devices="tripinfo_down_left_39" vType="car@down_left_39" speedFactor="0.90" vaporized=""/>
    <tripinfo id="up_37" depart="34.50" departLane="53o_0" departPos="4.60" departSpeed="0.00" departDelay="6.50" arrival="189.50" arrivalLane="54i_1" arrivalPos="6.00" arrivalSpeed="3.21" duration="155.00" routeLength="1015.40" waitingTime="2.50" waitingCount="1" stopTime="0.00" timeLoss="9.79" rerouteNo="0" devices="tripinfo_up_37" vType="car@up_37" speedFactor="1.18" vaporized=""/>
    <tripinfo id="down_left_42" depart="39.00" departLane="54o_0" departPos="4.60" departSpeed="0.00" departDelay="5.00" arrival="191.00" arrivalLane="51i_1" arrivalPos="6.00" arrivalSpeed="3.12" duration="152.00" routeLength="997.23" waitingTime="2.00" waitingCount="1" stopTime="0.00" timeLoss="9.53" rerouteNo="0" devices="tripinfo_down_left_42" vType="car@down_left_42" speedFactor="1.09" vaporized=""/>
    <tripinfo id="up_right_47" depart="41.00" departLane="53o_0" departPos="4.60" departSpeed="0.00" departDelay="4.00" arrival="193.00" arrivalLane="52i_1" arrivalPos="6.00" arrivalSpeed="4.18" duration="152.00" routeLength="997.23" waitingTime="2.00" waitingCount="1" stopTime="0.00" timeLoss="9.43" rerouteNo="0" devices="tripinfo_up_right_47" vType="car@up_right_47" speedFactor="0.90" vaporized=""/>
    <tripinfo id="down_43" depart="42.00" departLane="54o_0" departPos="4.60" departSpeed="0.00" departDelay="8.00" arrival="197.00" arrivalLane="53i_1" arrivalPos="6.00" arrivalSpeed="2.88" duration="155.00" routeLength="1015.40" waitingTime="2.00" waitingCount="1" stopTime="0.00" timeLoss="9.88" rerouteNo="0" devices="tripinfo_down_43" vType="car@down_43" speedFactor="1.04" vaporized=""/>
    <tripinfo id="down_left_50" depart="45.00" departLane="54o_0" departPos="4.60" departSpeed="0.00" departDelay="7.00" arrival="197.00" arrivalLane="51i_1" arrivalPos="6.00" arrivalSpeed="6.95" duration="152.00" routeLength="997.23" waitingTime="2.50" waitingCount="1" stopTime="0.00" timeLoss="9.23" rerouteNo="0" devices="tripinfo_down_left_50" vType="car@down_left_50" speedFactor="0.85" vaporized=""/>
    <tripinfo id="up_49" depart="44.00" departLane="53o_0" departPos="4.60" departSpeed="0.00" departDelay="6.00" arrival="198.50" arrivalLane="54i_1" arrivalPos="6.00" arrivalSpeed="2.78" duration="154.50" routeLength="1015.40" waitingTime="2.00" waitingCount="1" stopTime="0.00" timeLoss="9.28" rerouteNo="0" devices="tripinfo_up_49" vType="car@up_49" speedFactor="0.85" vaporized=""/>
    <tripinfo id="down_left_51" depart="48.00" departLane="54o_0" departPos="4.60" departSpeed="0.00" departDelay="9.00" arrival="200.00" arrivalLane="51i_1" arrivalPos="6.00" arrivalSpeed="6.84" duration="152.00" routeLength="997.23" waitingTime="2.50" waitingCount="1" stopTime="0.00" timeLoss="9.37" rerouteNo="0" devices="tripinfo_down_left_51" vType="car@down_left_51" speedFactor="1.17" vaporized=""/>
    <tripinfo id="down_left_54" depart="51.50" departLane="54o_0" departPos="4.60" departSpeed="0.00" departDelay="9.50" arrival="203.50" arrivalLane="51i_1" arrivalPos="6.00" arrivalSpeed="6.87" duration="152.00" routeLength="997.23" waitingTime="2.00" waitingCount="1" stopTime="0.00" timeLoss="9.17" rerouteNo="0" devices="tripinfo_down_left_54" vType="car@down_left_54" speedFactor="1.00" vaporized=""/>
    <tripinfo id="up_61" depart="50.00" departLane="53o_0" departPos="4.60" departSpeed="0.00" departDelay="0.00" arrival="204.50" arrivalLane="54i_1" arrivalPos="6.00" arrivalSpeed="3.36" duration="154.50" routeLength="1015.40" waitingTime="2.00" waitingCount="1" stopTime="0.00" timeLoss="9.42" rerouteNo="0" devices="tripinfo_up_61" vType="car@up_61" speedFactor="1.12" vaporized=""/>
    <tripinfo id="down_left_56" depart="54.50" departLane="54o_0" departPos="4.60" departSpeed="0.00" departDelay="9.50" arrival="206.00" arrivalLane="51i_1" arrivalPos="6.00" arrivalSpeed="7.00" duration="151.50" routeLength="997.23" waitingTime="2.00" waitingCount="1" stopTime="0.00" timeLoss="8.95" rerouteNo="0" devices="tripinfo_down_left_56" vType="car@down_left_56" speedFactor="0.90" vaporized=""/>
    <tripinfo id="up_65" depart="53.00" departLane="53o_0" departPos="4.60" departSpeed="0.00" departDelay="1.00" arrival="208.00" arrivalLane="54i_1" arrivalPos="6.00" arrivalSpeed="2.64" duration="155.00" routeLength="1015.40" waitingTime="2.00" waitingCount="1" stopTime="0.00" timeLoss="9.82" rerouteNo="0" devices="tripinfo_up_65" vType="car@up_65" speedFactor="0.88" vaporized=""/>
    <tripinfo id="up_70" depart="56.00" departLane="53o_0" departPos="4.60" departSpeed="0.00" departDelay="0.00" arrival="211.50" arrivalLane="54i_1" arrivalPos="6.00" arrivalSpeed="2.96" duration="155.50" routeLength="1015.40" waitingTime="2.00" waitingCount="1" stopTime="0.00" timeLoss="10.39" rerouteNo="0" devices="tripinfo_up_70" vType="car@up_70" speedFactor="1.02" vaporized=""/>
    <tripinfo id="up_right_75" depart="61.00" departLane="53o_0" departPos="4.60" departSpeed="0.00" departDelay="0.00" arrival="211.50" arrivalLane="52i_1" arrivalPos="6.00" arrivalSpeed="3.95" duration="150.50" routeLength="997.23" waitingTime="0.50" waitingCount="1" stopTime="0.00" timeLoss="7.93" rerouteNo="0" devices="tripinfo_up_right_75" vType="car@up_right_75" speedFactor="0.98" vaporized=""/>
    <tripinfo id="down_57" depart="57.50" departLane="54o_0" departPos="4.60" departSpeed="0.00" departDelay="11.50" arrival="212.50" arrivalLane="53i_1" arrivalPos="6.00" arrivalSpeed="4.32" duration="155.00" routeLength="1015.40" waitingTime="2.00" waitingCount="1" stopTime="0.00" timeLoss="9.85" rerouteNo="0" devices="tripinfo_down_57" vType="car@down_57" speedFactor="1.14" vaporized=""/>
    <tripinfo id="down_right_14" depart="13.00" departLane="54o_0" departPos="4.60" departSpeed="0.00" departDelay="0.00" arrival="217.50" arrivalLane="52i_1" arrivalPos="6.00" arrivalSpeed="3.12" duration="204.50" routeLength="1012.71" waitingTime="40.50" waitingCount="3" stopTime="0.00" timeLoss="59.65" rerouteNo="0" devices="tripinfo_down_right_14" vType="car@down_right_14" speedFactor="0.99" vaporized=""/>
    <tripinfo id="up_left_21" depart="19.50" departLane="53o_0" departPos="4.60" departSpeed="0.00" departDelay="1.50" arrival="218.00" arrivalLane="51i_1" arrivalPos="6.00" arrivalSpeed="3.97" duration="198.50" routeLength="1012.71" waitingTime="41.00" waitingCount="2" stopTime="0.00" timeLoss="53.67" rerouteNo="0" devices="tripinfo_up_left_21" vType="car@up_left_21" speedFactor="1.01" vaporized=""/>
    <tripinfo id="up_right_80" depart="65.50" departLane="53o_0" departPos="4.60" departSpeed="0.00" departDelay="0.50" arrival="219.50" arrivalLane="52i_1" arrivalPos="6.00" arrivalSpeed="3.06" duration="154.00" routeLength="997.23" waitingTime="2.00" waitingCount="1" stopTime="0.00" timeLoss="11.51" rerouteNo="0" devices="tripinfo_up_right_80" vType="car@up_right_80" speedFactor="1.03" vaporized=""/>
    <tripinfo id="down_left_63" depart="66.50" departLane="54o_0" departPos="4.60" departSpeed="0.00" departDelay="15.50" arrival="220.50" arrivalLane="51i_1" arrivalPos="6.00" arrivalSpeed="2.58" duration="154.00" routeLength="997.23" waitingTime="2.00" waitingCount="1" stopTime="0.00" timeLoss="11.41" rerouteNo="0" devices="tripinfo_down_left_63" vType="car@down_left_63" speedFactor="0.99" vaporized=""/>
    <tripinfo id="down_left_66" depart="69.50" departLane="54o_0" departPos="4.60" departSpeed="0.00" departDelay="17.50" arrival="223.00" arrivalLane="51i_1" arrivalPos="6.00" arrivalSpeed="2.44" duration="153.50" routeLength="997.23" waitingTime="2.00" waitingCount="1" stopTime="0.00" timeLoss="10.88" rerouteNo="0" devices="tripinfo_down_left_66" vType="car@down_left_66" speedFactor="0.91" vaporized=""/>
    <tripinfo id="down_left_67" depart="72.50" departLane="54o_0" departPos="4.60" departSpeed="0.00" departDelay="19.50" arrival="225.50" arrivalLane="51i_1" arrivalPos="6.00" arrivalSpeed="2.48" duration="153.00" routeLength="997.23" waitingTime="2.00" waitingCount="1" stopTime="0.00" timeLoss="10.38" rerouteNo="0" devices="tripinfo_down_left_67" vType="car@down_left_67" speedFactor="0.91" vaporized=""/>
    <tripinfo id="up_83" depart="71.50" departLane="53o_0" departPos="4.60" departSpeed="0.00" departDelay="4.50" arrival="226.50" arrivalLane="54i_1" arrivalPos="6.00" arrivalSpeed="2.81" duration="155.00" routeLength="1015.40" waitingTime="2.00" waitingCount="1" stopTime="0.00" timeLoss="9.86" rerouteNo="0" devices="tripinfo_up_83" vType="car@up_83" speedFactor="0.97" vaporized=""/>
    <tripinfo id="up_right_88" depart="74.50" departLane="53o_0" departPos="4.60" departSpeed="0.00" departDelay="3.50" arrival="226.50" arrivalLane="52i_1" arrivalPos="6.00" arrivalSpeed="4.52" duration="152.00" routeLength="997.23" waitingTime="2.00" waitingCount="1" stopTime="0.00" timeLoss="9.47" rerouteNo="0" devices="tripinfo_up_right_88" vType="car@up_right_88" speedFactor="1.01" vaporized=""/>
    <tripinfo id="down_left_68" depart="75.50" departLane="54o_0" departPos="4.60" departSpeed="0.00" departDelay="20.50" arrival="227.50" arrivalLane="51i_1" arrivalPos="6.00" arrivalSpeed="4.44" duration="152.00" routeLength="997.23" waitingTime="2.00" waitingCount="1" stopTime="0.00" timeLoss="9.48" rerouteNo="0" devices="tripinfo_down_left_68" vType="car@down_left_68" speedFactor="1.04" vaporized=""/>
    <tripinfo id="up_89" depart="77.50" departLane="53o_0" departPos="4.60" departSpeed="0.00" departDelay="5.50" arrival="232.00" arrivalLane="54i_1" arrivalPos="6.00" arrivalSpeed="3.01" duration="154.50" routeLength="1015.40" waitingTime="2.00" waitingCount="1" stopTime="0.00" timeLoss="9.40" rerouteNo="0" devices="tripinfo_up_89" vType="car@up_89" speedFactor="1.02" vaporized=""/>
    <tripinfo id="down_69" depart="78.50" departLane="54o_0" departPos="4.60" departSpeed="0.00" departDelay="23.50" arrival="233.50" arrivalLane="53i_1" arrivalPos="6.00" arrivalSpeed="4.21" duration="155.00" routeLength="1015.40" waitingTime="2.00" waitingCount="1" stopTime="0.00" timeLoss="9.78" rerouteNo="0" devices="tripinfo_down_69" vType="car@down_69" speedFactor="1.02" vaporized=""/>
    <tripinfo id="up_104" depart="87.00" departLane="53o_0" departPos="4.60" departSpeed="0.00" departDelay="0.00" arrival="239.50" arrivalLane="54i_1" arrivalPos="6.00" arrivalSpeed="3.09" duration="152.50" routeLength="1015.40" waitingTime="0.00" waitingCount="0" stopTime="0.00" timeLoss="7.42" rerouteNo="0" devices="tripinfo_up_104" vType="car@up_104" speedFactor="0.89" vaporized=""/>
    <tripinfo id="down_73" depart="84.50" departLane="54o_0" departPos="4.60" departSpeed="0.00" departDelay="26.50" arrival="240.00" arrivalLane="53i_1" arrivalPos="6.00" arrivalSpeed="3.24" duration="155.50" routeLength="1015.40" waitingTime="2.00" waitingCount="1" stopTime="0.00" timeLoss="10.27" rerouteNo="0" devices="tripinfo_down_73" vType="car@down_73" speedFactor="1.06" vaporized=""/>
    <tripinfo id="up_right_106" depart="88.00" departLane="53o_0" departPos="4.60" departSpeed="0.00" departDelay="0.00" arrival="240.00" arrivalLane="52i_1" arrivalPos="6.00" arrivalSpeed="3.14" duration="152.00" routeLength="997.23" waitingTime="1.50" waitingCount="1" stopTime="0.00" timeLoss="9.53" rerouteNo="0" devices="tripinfo_up_right_106" vType="car@up_right_106" speedFactor="1.01" vaporized=""/>
    <tripinfo id="down_right_18" depart="16.00" departLane="54o_0" departPos="4.60" departSpeed="0.00" departDelay="0.00" arrival="245.50" arrivalLane="52i_1" arrivalPos="6.00" arrivalSpeed="3.33" duration="229.50" routeLength="1012.71" waitingTime="60.00" waitingCount="4" stopTime="0.00" timeLoss="84.69" rerouteNo="0" devices="tripinfo_down_right_18" vType="car@down_right_18" speedFactor="0.94" vaporized=""/>
    <tripinfo id="up_left_26" depart="28.50" departLane="53o_0" departPos="4.60" departSpeed="0.00" departDelay="5.50" arrival="245.50" arrivalLane="51i_1" arrivalPos="6.00" arrivalSpeed="4.70" duration="217.00" routeLength="1012.71" waitingTime="53.50" waitingCount="3" stopTime="0.00" timeLoss="72.29" rerouteNo="0" devices="tripinfo_up_left_26" vType="car@up_left_26" speedFactor="0.92" vaporized=""/>
    <tripinfo id="down_82" depart="94.00" departLane="54o_0" departPos="4.60" departSpeed="0.00" departDelay="29.00" arrival="249.00" arrivalLane="53i_1" arrivalPos="6.00" arrivalSpeed="3.86" duration="155.00" routeLength="1015.40" waitingTime="2.50" waitingCount="1" stopTime="0.00" timeLoss="9.83" rerouteNo="0" devices="tripinfo_down_82" vType="car@down_82" speedFactor="1.02" vaporized=""/>
    <tripinfo id="down_left_85" depart="97.00" departLane="54o_0" departPos="4.60" departSpeed="0.00" departDelay="28.00" arrival="249.50" arrivalLane="51i_1" arrivalPos="6.00" arrivalSpeed="3.38" duration="152.50" routeLength="997.23" waitingTime="2.50" waitingCount="1" stopTime="0.00" timeLoss="9.96" rerouteNo="0" devices="tripinfo_down_left_85" vType="car@down_left_85" speedFactor="0.98" vaporized=""/>
    <tripinfo id="up_115" depart="97.00" departLane="53o_0" departPos="4.60" departSpeed="0.00" departDelay="0.00" arrival="251.50" arrivalLane="54i_1" arrivalPos="6.00" arrivalSpeed="2.58" duration="154.50" routeLength="1015.40" waitingTime="1.50" waitingCount="1" stopTime="0.00" timeLoss="9.31" rerouteNo="0" devices="tripinfo_up_115" vType="car@up_115" speedFactor="0.92" vaporized=""/>
    <tripinfo id="down_86" depart="100.50" departLane="54o_0" departPos="4.60" departSpeed="0.00" departDelay="30.50" arrival="255.00" arrivalLane="53i_1" arrivalPos="6.00" arrivalSpeed="3.62" duration="154.50" routeLength="1015.40" waitingTime="2.00" waitingCount="1" stopTime="0.00" timeLoss="9.29" rerouteNo="0" devices="tripinfo_down_86" vType="car@down_86" speedFactor="1.00" vaporized=""/>
    <tripinfo id="down_left_92" depart="103.50" departLane="54o_0" departPos="4.60" departSpeed="0.00" departDelay="28.50" arrival="255.50" arrivalLane="51i_1" arrivalPos="6.00" arrivalSpeed="3.11" duration="152.00" routeLength="997.23" waitingTime="2.00" waitingCount="1" stopTime="0.00" timeLoss="9.42" rerouteNo="0" devices="tripinfo_down_left_92" vType="car@down_left_92" speedFactor="0.83" vaporized=""/>
    <tripinfo id="up_122" depart="103.00" departLane="53o_0" departPos="4.60" departSpeed="0.00" departDelay="0.00" arrival="258.00" arrivalLane="54i_1" arrivalPos="6.00" arrivalSpeed="3.06" duration="155.00" routeLength="1015.40" waitingTime="1.50" waitingCount="1" stopTime="0.00" timeLoss="9.75" rerouteNo="0" devices="tripinfo_up_122" vType="car@up_122" speedFactor="1.03" vaporized=""/>
    <tripinfo id="down_left_94" depart="106.50" departLane="54o_0" departPos="4.60" departSpeed="0.00" departDelay="30.50" arrival="258.50" arrivalLane="51i_1" arrivalPos="6.00" arrivalSpeed="3.18" duration="152.00" routeLength="997.23" waitingTime="2.00" waitingCount="1" stopTime="0.00" timeLoss="9.38" rerouteNo="0" devices="tripinfo_down_left_94" vType="car@down_left_94" speedFactor="1.09" vaporized=""/>
    <tripinfo id="up_126" depart="108.00" departLane="53o_0" departPos="4.60" departSpeed="0.00" departDelay="0.00" arrival="260.50" arrivalLane="54i_1" arrivalPos="6.00" arrivalSpeed="3.21" duration="152.50" routeLength="1015.40" waitingTime="0.00" waitingCount="0" stopTime="0.00" timeLoss="7.45" rerouteNo="0" devices="tripinfo_up_126" vType="car@up_126" speedFactor="1.03" vaporized=""/>
    <tripinfo id="up_right_127" depart="108.50" departLane="53o_0" departPos="4.60" departSpeed="0.00" departDelay="0.50" arrival="261.00" arrivalLane="52i_1" arrivalPos="6.00" arrivalSpeed="3.18" duration="152.50" routeLength="997.23" waitingTime="2.00" waitingCount="1" stopTime="0.00" timeLoss="10.04" rerouteNo="0" devices="tripinfo_up_right_127" vType="car@up_right_127" speedFactor="0.82" vaporized=""/>
    <tripinfo id="down_left_97" depart="109.50" departLane="54o_0" departPos="4.60" departSpeed="0.00" departDelay="29.50" arrival="261.50" arrivalLane="51i_1" arrivalPos="6.00" arrivalSpeed="3.01" duration="152.00" routeLength="997.23" waitingTime="2.00" waitingCount="1" stopTime="0.00" timeLoss="9.39" rerouteNo="0" devices="tripinfo_down_left_97" vType="car@down_left_97" speedFactor="0.91" vaporized=""/>
    <tripinfo id="up_left_35" depart="31.50" departLane="53o_0" departPos="4.60" departSpeed="0.00" departDelay="4.50" arrival="267.00" arrivalLane="51i_1" arrivalPos="6.00" arrivalSpeed="4.16" duration="235.50" routeLength="1012.71" waitingTime="66.00" waitingCount="4" stopTime="0.00" timeLoss="90.76" rerouteNo="0" devices="tripinfo_up_left_35" vType="car@up_left_35" speedFactor="1.02" vaporized=""/>
    <tripinfo id="up_113" depart="96.00" departLane="53o_0" departPos="4.60" departSpeed="0.00" departDelay="0.00" arrival="269.00" arrivalLane="54i_1" arrivalPos="6.00" arrivalSpeed="2.98" duration="173.00" routeLength="1015.40" waitingTime="15.50" waitingCount="1" stopTime="0.00" timeLoss="27.90" rerouteNo="0" devices="tripinfo_up_113" vType="car@up_113" speedFactor="1.01" vaporized=""/>
    <tripinfo id="down_left_112" depart="118.50" departLane="54o_0" departPos="4.60" departSpeed="0.00" departDelay="23.50" arrival="270.50" arrivalLane="51i_1" arrivalPos="6.00" arrivalSpeed="2.72" duration="152.00" routeLength="997.23" waitingTime="2.00" waitingCount="1" stopTime="0.00" timeLoss="9.39" rerouteNo="0" devices="tripinfo_down_left_112" vType="car@down_left_112" speedFactor="1.10" vaporized=""/>
    <tripinfo id="up_right_135" depart="118.00" departLane="53o_0" departPos="4.60" departSpeed="0.00" departDelay="3.00" arrival="270.50" arrivalLane="52i_1" arrivalPos="6.00" arrivalSpeed="2.86" duration="152.50" routeLength="997.23" waitingTime="2.00" waitingCount="1" stopTime="0.00" timeLoss="9.97" rerouteNo="0" devices="tripinfo_up_right_135" vType="car@up_right_135" speedFactor="1.01" vaporized=""/>
    <tripinfo id="down_125" depart="121.50" departLane="54o_0" departPos="4.60" departSpeed="0.00" departDelay="14.50" arrival="276.00" arrivalLane="53i_1" arrivalPos="6.00" arrivalSpeed="4.51" duration="154.50" routeLength="1015.40" waitingTime="2.00" waitingCount="1" stopTime="0.00" timeLoss="9.41" rerouteNo="0" devices="tripinfo_down_125" vType="car@down_125" speedFactor="1.15" vaporized=""/>
    <tripinfo id="up_137" depart="121.00" departLane="53o_0" departPos="4.60" departSpeed="0.00" departDelay="2.00" arrival="276.00" arrivalLane="54i_1" arrivalPos="6.00" arrivalSpeed="2.99" duration="155.00" routeLength="1015.40" waitingTime="2.00" waitingCount="1" stopTime="0.00" timeLoss="9.91" rerouteNo="0" devices="tripinfo_up_137" vType="car@up_137" speedFactor="1.02" vaporized=""/>
    <tripinfo id="down_left_128" depart="124.50" departLane="54o_0" departPos="4.60" departSpeed="0.00" departDelay="16.50" arrival="277.00" arrivalLane="51i_1" arrivalPos="6.00" arrivalSpeed="2.75" duration="152.50" routeLength="997.23" waitingTime="2.00" waitingCount="1" stopTime="0.00" timeLoss="9.94" rerouteNo="0" devices="tripinfo_down_left_128" vType="car@down_left_128" speedFactor="1.12" vaporized=""/>
    <tripinfo id="down_left_131" depart="127.50" departLane="54o_0" departPos="4.60" departSpeed="0.00" departDelay="14.50" arrival="279.50" arrivalLane="51i_1" arrivalPos="6.00" arrivalSpeed="3.43" duration="152.00" routeLength="997.23" waitingTime="2.00" waitingCount="1" stopTime="0.00" timeLoss="9.43" rerouteNo="0" devices="tripinfo_down_left_131" vType="car@down_left_131" speedFactor="1.07" vaporized=""/>
    <tripinfo id="up_right_143" depart="127.00" departLane="53o_0" departPos="4.60" departSpeed="0.00" departDelay="4.00" arrival="282.00" arrivalLane="52i_1" arrivalPos="6.00" arrivalSpeed="3.05" duration="155.00" routeLength="997.23" waitingTime="2.00" waitingCount="1" stopTime="0.00" timeLoss="12.38" rerouteNo="0" devices="tripinfo_up_right_143" vType="car@up_right_143" speedFactor="1.13" vaporized=""/>
    <tripinfo id="down_left_138" depart="130.50" departLane="54o_0" departPos="4.60" departSpeed="0.00" departDelay="11.50" arrival="282.50" arrivalLane="51i_1" arrivalPos="6.00" arrivalSpeed="3.30" duration="152.00" routeLength="997.23" waitingTime="2.00" waitingCount="1" stopTime="0.00" timeLoss="9.41" rerouteNo="0" devices="tripinfo_down_left_138" vType="car@down_left_138" speedFactor="1.00" vaporized=""/>
    <tripinfo id="up_134" depart="115.00" departLane="53o_0" departPos="4.60" departSpeed="0.00" departDelay="0.00" arrival="283.00" arrivalLane="54i_1" arrivalPos="6.00" arrivalSpeed="3.85" duration="168.00" routeLength="1015.40" waitingTime="10.50" waitingCount="2" stopTime="0.00" timeLoss="22.85" rerouteNo="0" devices="tripinfo_up_134" vType="car@up_134" speedFactor="1.23" vaporized=""/>
    <tripinfo id="down_right_32" depart="30.00" departLane="54o_0" departPos="4.60" departSpeed="0.00" departDelay="5.00" arrival="288.50" arrivalLane="52i_1" arrivalPos="6.00" arrivalSpeed="2.86" duration="258.50" routeLength="1012.71" waitingTime="85.00" waitingCount="4" stopTime="0.00" timeLoss="113.76" rerouteNo="0" devices="tripinfo_down_right_32" vType="car@down_right_32" speedFactor="1.01" vaporized=""/>
    <tripinfo id="down_145" depart="136.50" departLane="54o_0" departPos="4.60" departSpeed="0.00" departDelay="13.50" arrival="291.50" arrivalLane="53i_1" arrivalPos="6.00" arrivalSpeed="3.28" duration="155.00" routeLength="1015.40" waitingTime="2.00" waitingCount="1" stopTime="0.00" timeLoss="9.78" rerouteNo="0" devices="tripinfo_down_145" vType="car@down_145" speedFactor="1.14" vaporized=""/>
    <tripinfo id="down_left_147" depart="139.50" departLane="54o_0" departPos="4.60" departSpeed="0.00" departDelay="14.50" arrival="292.00" arrivalLane="51i_1" arrivalPos="6.00" arrivalSpeed="2.73" duration="152.50" routeLength="997.23" waitingTime="2.50" waitingCount="1" stopTime="0.00" timeLoss="9.94" rerouteNo="0" devices="tripinfo_down_left_147" vType="car@down_left_147" speedFactor="1.00" vaporized=""/>
    <tripinfo id="up_right_171" depart="144.00" departLane="53o_0" departPos="4.60" departSpeed="0.00" departDelay="0.00" arrival="295.00" arrivalLane="52i_1" arrivalPos="6.00" arrivalSpeed="2.96" duration="151.00" routeLength="997.23" waitingTime="0.50" waitingCount="1" stopTime="0.00" timeLoss="8.49" rerouteNo="0" devices="tripinfo_up_right_171" vType="car@up_right_171" speedFactor="0.90" vaporized=""/>
    <tripinfo id="down_149" depart="142.50" departLane="54o_0" departPos="4.60" departSpeed="0.00" departDelay="16.50" arrival="297.50" arrivalLane="53i_1" arrivalPos="6.00" arrivalSpeed="4.13" duration="155.00" routeLength="1015.40" waitingTime="2.50" waitingCount="1" stopTime="0.00" timeLoss="9.88" rerouteNo="0" devices="tripinfo_down_149" vType="car@down_149" speedFactor="1.04" vaporized=""/>