<?xml version="1.0" encoding="UTF-8"?>

<!-- generated on 2021-05-28 20:04:50 by Eclipse SUMO GUI Version 1.9.2
<configuration xmlns:xsi="http://www.w3.org/2001/XMLSchema-instance" xsi:noNamespaceSchemaLocation="http://sumo.dlr.de/xsd/sumoConfiguration.xsd">

    <input>
        <net-file value="data/cross.net.xml"/>
        <route-files value="data/cross.rou.xml"/>
        <additional-files value="data/cross.det.xml"/>
    </input>

    <output>
        <tripinfo-output value="tripinfo.xml"/>
    </output>

    <time>
        <begin value="0"/>
        <step-length value=".5"/>
    </time>

    <processing>
        <collision.action value="none"/>
        <collision.mingap-factor value="0"/>
        <time-to-teleport value="-1"/>
        <time-to-teleport.highways value="-1"/>
    </processing>

    <report>
        <verbose value="true"/>
        <no-step-log value="true"/>
    </report>

    <traci_server>
        <remote-port value="62980"/>
    </traci_server>

    <gui_only>
        <tracker-interval value="0.5"/>
    </gui_only>

</configuration>
-->

<tripinfos xmlns:xsi="http://www.w3.org/2001/XMLSchema-instance" xsi:noNamespaceSchemaLocation="http://sumo.dlr.de/xsd/tripinfo_file.xsd">
    <tripinfo id="up_right_0" depart="3.00" departLane="53o_0" departPos="4.60" departSpeed="0.00" departDelay="0.00" arrival="152.50" arrivalLane="52i_1" arrivalPos="6.00" arrivalSpeed="6.89" duration="149.50" routeLength="997.23" waitingTime="0.00" waitingCount="0" stopTime="0.00" timeLoss="6.68" rerouteNo="0" devices="tripinfo_up_right_0" vType="car@up_right_0" speedFactor="1.06" vaporized=""/>
    <tripinfo id="up_1" depart="12.50" departLane="53o_0" departPos="4.60" departSpeed="0.00" departDelay="0.00" arrival="164.50" arrivalLane="54i_1" arrivalPos="6.00" arrivalSpeed="6.76" duration="152.00" routeLength="1015.40" waitingTime="0.00" waitingCount="0" stopTime="0.00" timeLoss="6.89" rerouteNo="0" devices="tripinfo_up_1" vType="car@up_1" speedFactor="0.94" vaporized=""/>
    <tripinfo id="left_3" depart="20.00" departLane="52o_0" departPos="4.60" departSpeed="0.00" departDelay="0.00" arrival="172.00" arrivalLane="51i_1" arrivalPos="6.00" arrivalSpeed="6.86" duration="152.00" routeLength="1015.40" waitingTime="0.00" waitingCount="0" stopTime="0.00" timeLoss="6.66" rerouteNo="0" devices="tripinfo_left_3" vType="car@left_3" speedFactor="1.08" vaporized=""/>
    <tripinfo id="down_4" depart="33.50" departLane="54o_0" departPos="4.60" departSpeed="0.00" departDelay="0.00" arrival="186.00" arrivalLane="53i_1" arrivalPos="6.00" arrivalSpeed="6.98" duration="152.50" routeLength="1015.40" waitingTime="0.00" waitingCount="0" stopTime="0.00" timeLoss="6.97" rerouteNo="0" devices="tripinfo_down_4" vType="car@down_4" speedFactor="1.03" vaporized=""/>
    <tripinfo id="right_up_2" depart="15.00" departLane="51o_0" departPos="4.60" departSpeed="0.00" departDelay="0.00" arrival="189.00" arrivalLane="54i_1" arrivalPos="6.00" arrivalSpeed="6.78" duration="174.00" routeLength="1012.71" waitingTime="9.50" waitingCount="6" stopTime="0.00" timeLoss="29.18" rerouteNo="0" devices="tripinfo_right_up_2" vType="car@right_up_2" speedFactor="1.01" vaporized=""/>
    <tripinfo id="right_up_5" depart="35.50" departLane="51o_0" departPos="4.60" departSpeed="0.00" departDelay="0.00" arrival="194.50" arrivalLane="54i_1" arrivalPos="6.00" arrivalSpeed="6.90" duration="159.00" routeLength="1012.71" waitingTime="0.00" waitingCount="0" stopTime="0.00" timeLoss="14.05" rerouteNo="0" devices="tripinfo_right_up_5" vType="car@right_up_5" speedFactor="0.83" vaporized=""/>
    <tripinfo id="left_6" depart="69.50" departLane="52o_0" departPos="4.60" departSpeed="0.00" departDelay="0.00" arrival="222.00" arrivalLane="51i_1" arrivalPos="6.00" arrivalSpeed="6.93" duration="152.50" routeLength="1015.40" waitingTime="0.00" waitingCount="0" stopTime="0.00" timeLoss="7.18" rerouteNo="0" devices="tripinfo_left_6" vType="car@left_6" speedFactor="1.05" vaporized=""/>
    <tripinfo id="up_right_7" depart="80.00" departLane="53o_0" departPos="4.60" departSpeed="0.00" departDelay="0.00" arrival="229.50" arrivalLane="52i_1" arrivalPos="6.00" arrivalSpeed="6.91" duration="149.50" routeLength="997.23" waitingTime="0.00" waitingCount="0" stopTime="0.00" timeLoss="6.85" rerouteNo="0" devices="tripinfo_up_right_7" vType="car@up_right_7" speedFactor="0.89" vaporized=""/>
    <tripinfo id="up_left_8" depart="93.50" departLane="53o_0" departPos="4.60" departSpeed="0.00" departDelay="0.00" arrival="250.00" arrivalLane="51i_1" arrivalPos="6.00" arrivalSpeed="6.93" duration="156.50" routeLength="1012.71" waitingTime="0.00" waitingCount="0" stopTime="0.00" timeLoss="11.48" rerouteNo="0" devices="tripinfo_up_left_8" vType="car@up_left_8" speedFactor="0.94" vaporized=""/>
    <tripinfo id="down_9" depart="130.00" departLane="54o_0" departPos="4.60" departSpeed="0.00" departDelay="0.00" arrival="282.50" arrivalLane="53i_1" arrivalPos="6.00" arrivalSpeed="6.96" duration="152.50" routeLength="1015.40" waitingTime="0.00" waitingCount="0" stopTime="0.00" timeLoss="7.16" rerouteNo="0" devices="tripinfo_down_9" vType="car@down_9" speedFactor="0.86" vaporized=""/>
    <tripinfo id="left_10" depart="144.00" departLane="52o_0" departPos="4.60" departSpeed="0.00" departDelay="0.00" arrival="297.50" arrivalLane="51i_1" arrivalPos="6.00" arrivalSpeed="6.99" duration="153.50" routeLength="1015.40" waitingTime="0.00" waitingCount="0" stopTime="0.00" timeLoss="8.02" rerouteNo="0" devices="tripinfo_left_10" vType="car@left_10" speedFactor="1.09" vaporized=""/>
    <tripinfo id="up_left_11" depart="157.50" departLane="53o_0" departPos="4.60" departSpeed="0.00" departDelay="0.00" arrival="309.50" arrivalLane="51i_1" arrivalPos="6.00" arrivalSpeed="7.00" duration="152.00" routeLength="1012.71" waitingTime="0.00" waitingCount="0" stopTime="0.00" timeLoss="7.09" rerouteNo="0" devices="tripinfo_up_left_11" vType="car@up_left_11" speedFactor="1.03" vaporized=""/>
    <tripinfo id="up_left_12" depart="159.50" departLane="53o_0" departPos="4.60" departSpeed="0.00" departDelay="0.00" arrival="319.50" arrivalLane="51i_1" arrivalPos="6.00" arrivalSpeed="6.81" duration="160.00" routeLength="1012.71" waitingTime="1.00" waitingCount="1" stopTime="0.00" timeLoss="15.16" rerouteNo="0" devices="tripinfo_up_left_12" vType="car@up_left_12" speedFactor="1.05" vaporized=""/>
    <tripinfo id="left_up_13" depart="184.50" departLane="52o_0" departPos="4.60" departSpeed="0.00" departDelay="0.00" arrival="334.50" arrivalLane="54i_1" arrivalPos="6.00" arrivalSpeed="6.98" duration="150.00" routeLength="997.23" waitingTime="0.00" waitingCount="0" stopTime="0.00" timeLoss="7.20" rerouteNo="0" devices="tripinfo_left_up_13" vType="car@left_up_13" speedFactor="1.12" vaporized=""/>
    <tripinfo id="right_down_14" depart="194.00" departLane="51o_0" departPos="4.60" departSpeed="0.00" departDelay="0.00" arrival="344.00" arrivalLane="53i_1" arrivalPos="6.00" arrivalSpeed="6.77" duration="150.00" routeLength="997.23" waitingTime="0.00" waitingCount="0" stopTime="0.00" timeLoss="7.24" rerouteNo="0" devices="tripinfo_right_down_14" vType="car@right_down_14" speedFactor="0.99" vaporized=""/>
    <tripinfo id="up_15" depart="197.00" departLane="53o_0" departPos="4.60" departSpeed="0.00" departDelay="0.00" arrival="349.00" arrivalLane="54i_1" arrivalPos="6.00" arrivalSpeed="6.79" duration="152.00" routeLength="1015.40" waitingTime="0.00" waitingCount="0" stopTime="0.00" timeLoss="6.58" rerouteNo="0" devices="tripinfo_up_15" vType="car@up_15" speedFactor="0.93" vaporized=""/>
    <tripinfo id="left_down_16" depart="230.00" departLane="52o_0" departPos="4.60" departSpeed="0.00" departDelay="0.00" arrival="382.50" arrivalLane="53i_1" arrivalPos="6.00" arrivalSpeed="6.80" duration="152.50" routeLength="1012.71" waitingTime="0.00" waitingCount="0" stopTime="0.00" timeLoss="7.38" rerouteNo="0" devices="tripinfo_left_down_16" vType="car@left_down_16" speedFactor="0.88" vaporized=""/>
    <tripinfo id="left_up_17" depart="236.00" departLane="52o_0" departPos="4.60" departSpeed="0.00" departDelay="0.00" arrival="386.00" arrivalLane="54i_1" arrivalPos="6.00" arrivalSpeed="6.92" duration="150.00" routeLength="997.23" waitingTime="0.00" waitingCount="0" stopTime="0.00" timeLoss="7.19" rerouteNo="0" devices="tripinfo_left_up_17" vType="car@left_up_17" speedFactor="0.94" vaporized=""/>
    <tripinfo id="down_left_19" depart="238.50" departLane="54o_0" departPos="4.60" departSpeed="0.00" departDelay="0.00" arrival="388.50" arrivalLane="51i_1" arrivalPos="6.00" arrivalSpeed="6.85" duration="150.00" routeLength="997.23" waitingTime="0.00" waitingCount="0" stopTime="0.00" timeLoss="7.22" rerouteNo="0" devices="tripinfo_down_left_19" vType="car@down_left_19" speedFactor="1.16" vaporized=""/>
    <tripinfo id="left_down_20" depart="241.50" departLane="52o_0" departPos="4.60" departSpeed="0.00" departDelay="0.00" arrival="396.50" arrivalLane="53i_1" arrivalPos="6.00" arrivalSpeed="6.89" duration="155.00" routeLength="1012.71" waitingTime="0.00" waitingCount="0" stopTime="0.00" timeLoss="9.87" rerouteNo="0" devices="tripinfo_left_down_20" vType="car@left_down_20" speedFactor="1.02" vaporized=""/>
    <tripinfo id="up_left_18" depart="237.00" departLane="53o_0" departPos="4.60" departSpeed="0.00" departDelay="0.00" arrival="400.50" arrivalLane="51i_1" arrivalPos="6.00" arrivalSpeed="6.99" duration="163.50" routeLength="1012.71" waitingTime="1.50" waitingCount="2" stopTime="0.00" timeLoss="18.48" rerouteNo="0" devices="tripinfo_up_left_18" vType="car@up_left_18" speedFactor="0.94" vaporized=""/>
    <tripinfo id="left_21" depart="250.50" departLane="52o_0" departPos="4.60" departSpeed="0.00" departDelay="0.00" arrival="403.50" arrivalLane="51i_1" arrivalPos="6.00" arrivalSpeed="6.87" duration="153.00" routeLength="1015.40" waitingTime="0.00" waitingCount="0" stopTime="0.00" timeLoss="7.61" rerouteNo="0" devices="tripinfo_left_21" vType="car@left_21" speedFactor="1.01" vaporized=""/>
    <tripinfo id="right_up_22" depart="253.50" departLane="51o_0" departPos="4.60" departSpeed="0.00" departDelay="0.00" arrival="406.00" arrivalLane="54i_1" arrivalPos="6.00" arrivalSpeed="6.84" duration="152.50" routeLength="1012.71" waitingTime="0.00" waitingCount="0" stopTime="0.00" timeLoss="7.50" rerouteNo="0" devices="tripinfo_right_up_22" vType="car@right_up_22" speedFactor="0.98" vaporized=""/>
    <tripinfo id="right_down_23" depart="261.00" departLane="51o_0" departPos="4.60" departSpeed="0.00" departDelay="0.00" arrival="411.00" arrivalLane="53i_1" arrivalPos="6.00" arrivalSpeed="6.84" duration="150.00" routeLength="997.23" waitingTime="0.00" waitingCount="0" stopTime="0.00" timeLoss="7.27" rerouteNo="0" devices="tripinfo_right_down_23" vType="car@right_down_23" speedFactor="0.89" vaporized=""/>
    <tripinfo id="left_up_24" depart="261.50" departLane="52o_0" departPos="4.60" departSpeed="0.00" departDelay="0.00" arrival="411.00" arrivalLane="54i_1" arrivalPos="6.00" arrivalSpeed="6.90" duration="149.50" routeLength="997.23" waitingTime="0.00" waitingCount="0" stopTime="0.00" timeLoss="6.67" rerouteNo="0" devices="tripinfo_left_up_24" vType="car@left_up_24" speedFactor="0.83" vaporized=""/>
    <tripinfo id="left_down_25" depart="267.50" departLane="52o_0" departPos="4.60" departSpeed="0.00" departDelay="0.00" arrival="426.50" arrivalLane="53i_1" arrivalPos="6.00" arrivalSpeed="6.89" duration="159.00" routeLength="1012.71" waitingTime="0.00" waitingCount="0" stopTime="0.00" timeLoss="14.17" rerouteNo="0" devices="tripinfo_left_down_25" vType="car@left_down_25" speedFactor="0.87" vaporized=""/>
    <tripinfo id="up_26" depart="287.50" departLane="53o_0" departPos="4.60" departSpeed="0.00" departDelay="0.00" arrival="439.50" arrivalLane="54i_1" arrivalPos="6.00" arrivalSpeed="6.78" duration="152.00" routeLength="1015.40" waitingTime="0.00" waitingCount="0" stopTime="0.00" timeLoss="6.90" rerouteNo="0" devices="tripinfo_up_26" vType="car@up_26" speedFactor="0.92" vaporized=""/>
    <tripinfo id="left_down_27" depart="293.00" departLane="52o_0" departPos="4.60" departSpeed="0.00" departDelay="0.00" arrival="452.50" arrivalLane="53i_1" arrivalPos="6.00" arrivalSpeed="6.98" duration="159.50" routeLength="1012.71" waitingTime="1.00" waitingCount="2" stopTime="0.00" timeLoss="14.54" rerouteNo="0" devices="tripinfo_left_down_27" vType="car@left_down_27" speedFactor="0.95" vaporized=""/>
    <tripinfo id="up_28" depart="301.50" departLane="53o_0" departPos="4.60" departSpeed="0.00" departDelay="0.00" arrival="454.00" arrivalLane="54i_1" arrivalPos="6.00" arrivalSpeed="6.82" duration="152.50" routeLength="1015.40" waitingTime="0.00" waitingCount="0" stopTime="0.00" timeLoss="7.36" rerouteNo="0" devices="tripinfo_up_28" vType="car@up_28" speedFactor="1.13" vaporized=""/>
    <tripinfo id="left_up_29" depart="310.50" departLane="52o_0" departPos="4.60" departSpeed="0.00" departDelay="0.00" arrival="460.50" arrivalLane="54i_1" arrivalPos="6.00" arrivalSpeed="6.77" duration="150.00" routeLength="997.23" waitingTime="0.00" waitingCount="0" stopTime="0.00" timeLoss="7.15" rerouteNo="0" devices="tripinfo_left_up_29" vType="car@left_up_29" speedFactor="0.93" vaporized=""/>
    <tripinfo id="down_30" depart="323.00" departLane="54o_0" departPos="4.60" departSpeed="0.00" departDelay="0.00" arrival="476.00" arrivalLane="53i_1" arrivalPos="6.00" arrivalSpeed="6.84" duration="153.00" routeLength="1015.40" waitingTime="0.00" waitingCount="0" stopTime="0.00" timeLoss="7.90" rerouteNo="0" devices="tripinfo_down_30" vType="car@down_30" speedFactor="1.18" vaporized=""/>
    <tripinfo id="up_right_31" depart="329.00" departLane="53o_0" departPos="4.60" departSpeed="0.00" departDelay="0.00" arrival="479.00" arrivalLane="52i_1" arrivalPos="6.00" arrivalSpeed="6.83" duration="150.00" routeLength="997.23" waitingTime="0.00" waitingCount="0" stopTime="0.00" timeLoss="7.17" rerouteNo="0" devices="tripinfo_up_right_31" vType="car@up_right_31" speedFactor="1.15" vaporized=""/>
    <tripinfo id="left_up_32" depart="346.50" departLane="52o_0" departPos="4.60" departSpeed="0.00" departDelay="0.00" arrival="496.00" arrivalLane="54i_1" arrivalPos="6.00" arrivalSpeed="6.87" duration="149.50" routeLength="997.23" waitingTime="0.00" waitingCount="0" stopTime="0.00" timeLoss="6.60" rerouteNo="0" devices="tripinfo_left_up_32" vType="car@left_up_32" speedFactor="1.01" vaporized=""/>
    <tripinfo id="right_down_34" depart="351.50" departLane="51o_0" departPos="4.60" departSpeed="0.00" departDelay="0.00" arrival="501.50" arrivalLane="53i_1" arrivalPos="6.00" arrivalSpeed="6.90" duration="150.00" routeLength="997.23" waitingTime="0.00" waitingCount="0" stopTime="0.00" timeLoss="7.08" rerouteNo="0" devices="tripinfo_right_down_34" vType="car@right_down_34" speedFactor="0.99" vaporized=""/>
    <tripinfo id="left_33" depart="347.50" departLane="52o_0" departPos="4.60" departSpeed="0.00" departDelay="0.00" arrival="502.00" arrivalLane="51i_1" arrivalPos="6.00" arrivalSpeed="6.95" duration="154.50" routeLength="1015.40" waitingTime="2.00" waitingCount="1" stopTime="0.00" timeLoss="9.35" rerouteNo="0" devices="tripinfo_left_33" vType="car@left_33" speedFactor="1.17" vaporized=""/>
    <tripinfo id="left_up_35" depart="385.50" departLane="52o_0" departPos="4.60" departSpeed="0.00" departDelay="0.00" arrival="535.50" arrivalLane="54i_1" arrivalPos="6.00" arrivalSpeed="6.89" duration="150.00" routeLength="997.23" waitingTime="0.00" waitingCount="0" stopTime="0.00" timeLoss="7.15" rerouteNo="0" devices="tripinfo_left_up_35" vType="car@left_up_35" speedFactor="1.02" vaporized=""/>
    <tripinfo id="up_36" depart="395.50" departLane="53o_0" departPos="4.60" departSpeed="0.00" departDelay="0.00" arrival="547.50" arrivalLane="54i_1" arrivalPos="6.00" arrivalSpeed="6.83" duration="152.00" routeLength="1015.40" waitingTime="0.00" waitingCount="0" stopTime="0.00" timeLoss="6.51" rerouteNo="0" devices="tripinfo_up_36" vType="car@up_36" speedFactor="0.97" vaporized=""/>
    <tripinfo id="up_37" depart="396.50" departLane="53o_0" departPos="4.60" departSpeed="0.00" departDelay="0.50" arrival="551.00" arrivalLane="54i_1" arrivalPos="6.00" arrivalSpeed="6.80" duration="154.50" routeLength="1015.40" waitingTime="2.00" waitingCount="1" stopTime="0.00" timeLoss="9.07" rerouteNo="0" devices="tripinfo_up_37" vType="car@up_37" speedFactor="1.18" vaporized=""/>
    <tripinfo id="right_38" depart="406.00" departLane="51o_0" departPos="4.60" departSpeed="0.00" departDelay="0.00" arrival="572.00" arrivalLane="52i_1" arrivalPos="6.00" arrivalSpeed="6.98" duration="166.00" routeLength="1015.40" waitingTime="2.50" waitingCount="5" stopTime="0.00" timeLoss="20.49" rerouteNo="0" devices="tripinfo_right_38" vType="car@right_38" speedFactor="1.10" vaporized=""/>
    <tripinfo id="left_39" depart="417.00" departLane="52o_0" departPos="4.60" departSpeed="0.00" departDelay="0.00" arrival="573.00" arrivalLane="51i_1" arrivalPos="6.00" arrivalSpeed="6.94" duration="156.00" routeLength="1015.40" waitingTime="0.00" waitingCount="0" stopTime="0.00" timeLoss="10.92" rerouteNo="0" devices="tripinfo_left_39" vType="car@left_39" speedFactor="0.90" vaporized=""/>
    <tripinfo id="up_right_40" depart="419.50" departLane="53o_0" departPos="4.60" departSpeed="0.00" departDelay="0.00" arrival="575.00" arrivalLane="52i_1" arrivalPos="6.00" arrivalSpeed="6.93" duration="155.50" routeLength="997.23" waitingTime="1.00" waitingCount="1" stopTime="0.00" timeLoss="12.88" rerouteNo="0" devices="tripinfo_up_right_40" vType="car@up_right_40" speedFactor="1.03" vaporized=""/>
    <tripinfo id="up_left_42" depart="443.00" departLane="53o_0" departPos="4.60" departSpeed="0.00" departDelay="0.00" arrival="602.50" arrivalLane="51i_1" arrivalPos="6.00" arrivalSpeed="6.84" duration="159.50" routeLength="1012.71" waitingTime="1.50" waitingCount="2" stopTime="0.00" timeLoss="14.72" rerouteNo="0" devices="tripinfo_up_left_42" vType="car@up_left_42" speedFactor="1.09" vaporized=""/>
    <tripinfo id="up_43" depart="451.50" departLane="53o_0" departPos="4.60" departSpeed="0.00" departDelay="0.00" arrival="603.50" arrivalLane="54i_1" arrivalPos="6.00" arrivalSpeed="6.92" duration="152.00" routeLength="1015.40" waitingTime="0.00" waitingCount="0" stopTime="0.00" timeLoss="6.82" rerouteNo="0" devices="tripinfo_up_43" vType="car@up_43" speedFactor="1.04" vaporized=""/>
    <tripinfo id="up_44" depart="468.00" departLane="53o_0" departPos="4.60" departSpeed="0.00" departDelay="0.00" arrival="623.50" arrivalLane="54i_1" arrivalPos="6.00" arrivalSpeed="6.90" duration="155.50" routeLength="1015.40" waitingTime="0.00" waitingCount="0" stopTime="0.00" timeLoss="10.00" rerouteNo="0" devices="tripinfo_up_44" vType="car@up_44" speedFactor="1.04" vaporized=""/>
    <tripinfo id="left_down_41" depart="442.00" departLane="52o_0" departPos="4.60" departSpeed="0.00" departDelay="0.00" arrival="628.50" arrivalLane="53i_1" arrivalPos="6.00" arrivalSpeed="6.94" duration="186.50" routeLength="1012.71" waitingTime="16.00" waitingCount="10" stopTime="0.00" timeLoss="41.60" rerouteNo="0" devices="tripinfo_left_down_41" vType="car@left_down_41" speedFactor="0.96" vaporized=""/>
    <tripinfo id="up_right_45" depart="487.50" departLane="53o_0" departPos="4.60" departSpeed="0.00" departDelay="0.00" arrival="637.00" arrivalLane="52i_1" arrivalPos="6.00" arrivalSpeed="6.93" duration="149.50" routeLength="997.23" waitingTime="0.00" waitingCount="0" stopTime="0.00" timeLoss="6.93" rerouteNo="0" devices="tripinfo_up_right_45" vType="car@up_right_45" speedFactor="1.09" vaporized=""/>
    <tripinfo id="up_left_47" depart="509.50" departLane="53o_0" departPos="4.60" departSpeed="0.00" departDelay="0.00" arrival="664.00" arrivalLane="51i_1" arrivalPos="6.00" arrivalSpeed="6.87" duration="154.50" routeLength="1012.71" waitingTime="0.00" waitingCount="0" stopTime="0.00" timeLoss="9.52" rerouteNo="0" devices="tripinfo_up_left_47" vType="car@up_left_47" speedFactor="0.90" vaporized=""/>
    <tripinfo id="up_right_50" depart="523.00" departLane="53o_0" departPos="4.60" departSpeed="0.00" departDelay="0.00" arrival="672.50" arrivalLane="52i_1" arrivalPos="6.00" arrivalSpeed="6.88" duration="149.50" routeLength="997.23" waitingTime="0.00" waitingCount="0" stopTime="0.00" timeLoss="7.01" rerouteNo="0" devices="tripinfo_up_right_50" vType="car@up_right_50" speedFactor="0.85" vaporized=""/>
    <tripinfo id="left_51" depart="525.00" departLane="52o_0" departPos="4.60" departSpeed="0.00" departDelay="0.00" arrival="677.50" arrivalLane="51i_1" arrivalPos="6.00" arrivalSpeed="6.82" duration="152.50" routeLength="1015.40" waitingTime="0.00" waitingCount="0" stopTime="0.00" timeLoss="7.40" rerouteNo="0" devices="tripinfo_left_51" vType="car@left_51" speedFactor="1.17" vaporized=""/>
    <tripinfo id="right_48" depart="520.50" departLane="51o_0" departPos="4.60" departSpeed="0.00" departDelay="0.00" arrival="697.50" arrivalLane="52i_1" arrivalPos="6.00" arrivalSpeed="6.91" duration="177.00" routeLength="1015.40" waitingTime="6.50" waitingCount="6" stopTime="0.00" timeLoss="31.50" rerouteNo="0" devices="tripinfo_right_48" vType="car@right_48" speedFactor="0.88" vaporized=""/>
    <tripinfo id="right_up_49" depart="522.00" departLane="51o_0" departPos="4.60" departSpeed="0.00" departDelay="0.00" arrival="698.00" arrivalLane="54i_1" arrivalPos="6.00" arrivalSpeed="6.91" duration="176.00" routeLength="1012.71" waitingTime="6.50" waitingCount="4" stopTime="0.00" timeLoss="31.34" rerouteNo="0" devices="tripinfo_right_up_49" vType="car@right_up_49" speedFactor="0.85" vaporized=""/>
    <tripinfo id="right_down_55" depart="550.50" departLane="51o_0" departPos="4.60" departSpeed="0.00" departDelay="0.00" arrival="700.50" arrivalLane="53i_1" arrivalPos="6.00" arrivalSpeed="6.96" duration="150.00" routeLength="997.23" waitingTime="0.00" waitingCount="0" stopTime="0.00" timeLoss="7.07" rerouteNo="0" devices="tripinfo_right_down_55" vType="car@right_down_55" speedFactor="1.00" vaporized=""/>
    <tripinfo id="up_56" depart="553.50" departLane="53o_0" departPos="4.60" departSpeed="0.00" departDelay="0.00" arrival="706.00" arrivalLane="54i_1" arrivalPos="6.00" arrivalSpeed="6.92" duration="152.50" routeLength="1015.40" waitingTime="0.00" waitingCount="0" stopTime="0.00" timeLoss="7.30" rerouteNo="0" devices="tripinfo_up_56" vType="car@up_56" speedFactor="0.90" vaporized=""/>
    <tripinfo id="down_left_57" depart="556.00" departLane="54o_0" departPos="4.60" departSpeed="0.00" departDelay="0.00" arrival="706.00" arrivalLane="51i_1" arrivalPos="6.00" arrivalSpeed="6.90" duration="150.00" routeLength="997.23" waitingTime="0.00" waitingCount="0" stopTime="0.00" timeLoss="7.31" rerouteNo="0" devices="tripinfo_down_left_57" vType="car@down_left_57" speedFactor="1.14" vaporized=""/>
    <tripinfo id="down_58" depart="562.50" departLane="54o_0" departPos="4.60" departSpeed="0.00" departDelay="0.00" arrival="716.00" arrivalLane="53i_1" arrivalPos="6.00" arrivalSpeed="6.81" duration="153.50" routeLength="1015.40" waitingTime="0.00" waitingCount="0" stopTime="0.00" timeLoss="8.10" rerouteNo="0" devices="tripinfo_down_58" vType="car@down_58" speedFactor="1.02" vaporized=""/>
    <tripinfo id="down_right_52" depart="537.50" departLane="54o_0" departPos="4.60" departSpeed="0.00" departDelay="0.00" arrival="722.50" arrivalLane="52i_1" arrivalPos="6.00" arrivalSpeed="6.78" duration="185.00" routeLength="1012.71" waitingTime="21.00" waitingCount="6" stopTime="0.00" timeLoss="39.95" rerouteNo="0" devices="tripinfo_down_right_52" vType="car@down_right_52" speedFactor="1.02" vaporized=""/>
    <tripinfo id="down_right_54" depart="547.00" departLane="54o_0" departPos="4.60" departSpeed="0.00" departDelay="0.00" arrival="733.00" arrivalLane="52i_1" arrivalPos="6.00" arrivalSpeed="6.87" duration="186.00" routeLength="1012.71" waitingTime="13.50" waitingCount="9" stopTime="0.00" timeLoss="41.31" rerouteNo="0" devices="tripinfo_down_right_54" vType="car@down_right_54" speedFactor="1.00" vaporized=""/>
    <tripinfo id="right_down_60" depart="586.00" departLane="51o_0" departPos="4.60" departSpeed="0.00" departDelay="0.00" arrival="736.00" arrivalLane="53i_1" arrivalPos="6.00" arrivalSpeed="6.79" duration="150.00" routeLength="997.23" waitingTime="0.00" waitingCount="0" stopTime="0.00" timeLoss="7.24" rerouteNo="0" devices="tripinfo_right_down_60" vType="car@right_down_60" speedFactor="1.08" vaporized=""/>
    <tripinfo id="left_53" depart="543.00" departLane="52o_0" departPos="4.60" departSpeed="0.00" departDelay="0.00" arrival="739.00" arrivalLane="51i_1" arrivalPos="6.00" arrivalSpeed="6.99" duration="196.00" routeLength="1015.40" waitingTime="30.00" waitingCount="6" stopTime="0.00" timeLoss="50.63" rerouteNo="0" devices="tripinfo_left_53" vType="car@left_53" speedFactor="1.10" vaporized=""/>
    <tripinfo id="up_61" depart="591.50" departLane="53o_0" departPos="4.60" departSpeed="0.00" departDelay="0.00" arrival="743.50" arrivalLane="54i_1" arrivalPos="6.00" arrivalSpeed="6.99" duration="152.00" routeLength="1015.40" waitingTime="0.00" waitingCount="0" stopTime="0.00" timeLoss="6.89" rerouteNo="0" devices="tripinfo_up_61" vType="car@up_61" speedFactor="1.12" vaporized=""/>
    <tripinfo id="left_down_46" depart="505.50" departLane="52o_0" departPos="4.60" departSpeed="0.00" departDelay="0.00" arrival="746.00" arrivalLane="53i_1" arrivalPos="6.00" arrivalSpeed="6.81" duration="240.50" routeLength="1012.71" waitingTime="77.00" waitingCount="1" stopTime="0.00" timeLoss="95.47" rerouteNo="0" devices="tripinfo_left_down_46" vType="car@left_down_46" speedFactor="1.00" vaporized=""/>
    <tripinfo id="down_62" depart="597.50" departLane="54o_0" departPos="4.60" departSpeed="0.00" departDelay="0.00" arrival="750.00" arrivalLane="53i_1" arrivalPos="6.00" arrivalSpeed="6.83" duration="152.50" routeLength="1015.40" waitingTime="0.00" waitingCount="0" stopTime="0.00" timeLoss="7.00" rerouteNo="0" devices="tripinfo_down_62" vType="car@down_62" speedFactor="1.02" vaporized=""/>
    <tripinfo id="left_59" depart="577.50" departLane="52o_0" departPos="4.60" departSpeed="0.00" departDelay="0.00" arrival="766.00" arrivalLane="51i_1" arrivalPos="6.00" arrivalSpeed="6.80" duration="188.50" routeLength="1015.40" waitingTime="19.00" waitingCount="4" stopTime="0.00" timeLoss="42.98" rerouteNo="0" devices="tripinfo_left_59" vType="car@left_59" speedFactor="0.97" vaporized=""/>
    <tripinfo id="down_64" depart="617.00" departLane="54o_0" departPos="4.60" departSpeed="0.00" departDelay="0.00" arrival="769.00" arrivalLane="53i_1" arrivalPos="6.00" arrivalSpeed="7.00" duration="152.00" routeLength="1015.40" waitingTime="0.00" waitingCount="0" stopTime="0.00" timeLoss="6.69" rerouteNo="0" devices="tripinfo_down_64" vType="car@down_64" speedFactor="0.94" vaporized=""/>
    <tripinfo id="left_63" depart="616.50" departLane="52o_0" departPos="4.60" departSpeed="0.00" departDelay="0.00" arrival="777.50" arrivalLane="51i_1" arrivalPos="6.00" arrivalSpeed="6.75" duration="161.00" routeLength="1015.40" waitingTime="1.00" waitingCount="2" stopTime="0.00" timeLoss="15.65" rerouteNo="0" devices="tripinfo_left_63" vType="car@left_63" speedFactor="0.99" vaporized=""/>
    <tripinfo id="left_up_65" depart="619.00" departLane="52o_0" departPos="4.60" departSpeed="0.00" departDelay="0.00" arrival="780.00" arrivalLane="54i_1" arrivalPos="6.00" arrivalSpeed="6.77" duration="161.00" routeLength="997.23" waitingTime="1.00" waitingCount="2" stopTime="0.00" timeLoss="18.13" rerouteNo="0" devices="tripinfo_left_up_65" vType="car@left_up_65" speedFactor="0.88" vaporized=""/>
    <tripinfo id="left_up_66" depart="622.00" departLane="52o_0" departPos="4.60" departSpeed="0.00" departDelay="0.00" arrival="782.00" arrivalLane="54i_1" arrivalPos="6.00" arrivalSpeed="6.75" duration="160.00" routeLength="997.23" waitingTime="1.00" waitingCount="1" stopTime="0.00" timeLoss="17.12" rerouteNo="0" devices="tripinfo_left_up_66" vType="car@left_up_66" speedFactor="0.91" vaporized=""/>
    <tripinfo id="left_up_67" depart="625.50" departLane="52o_0" departPos="4.60" departSpeed="0.00" departDelay="0.00" arrival="783.50" arrivalLane="54i_1" arrivalPos="6.00" arrivalSpeed="6.91" duration="158.00" routeLength="997.23" waitingTime="1.00" waitingCount="1" stopTime="0.00" timeLoss="15.48" rerouteNo="0" devices="tripinfo_left_up_67" vType="car@left_up_67" speedFactor="0.91" vaporized=""/>
    <tripinfo id="down_left_68" depart="641.50" departLane="54o_0" departPos="4.60" departSpeed="0.00" departDelay="0.00" arrival="791.00" arrivalLane="51i_1" arrivalPos="6.00" arrivalSpeed="6.87" duration="149.50" routeLength="997.23" waitingTime="0.00" waitingCount="0" stopTime="0.00" timeLoss="6.88" rerouteNo="0" devices="tripinfo_down_left_68" vType="car@down_left_68" speedFactor="1.04" vaporized=""/>
    <tripinfo id="up_right_69" depart="651.50" departLane="53o_0" departPos="4.60" departSpeed="0.00" departDelay="0.00" arrival="801.50" arrivalLane="52i_1" arrivalPos="6.00" arrivalSpeed="6.95" duration="150.00" routeLength="997.23" waitingTime="0.00" waitingCount="0" stopTime="0.00" timeLoss="7.38" rerouteNo="0" devices="tripinfo_up_right_69" vType="car@up_right_69" speedFactor="1.02" vaporized=""/>
    <tripinfo id="up_right_70" depart="655.00" departLane="53o_0" departPos="4.60" departSpeed="0.00" departDelay="0.00" arrival="804.50" arrivalLane="52i_1" arrivalPos="6.00" arrivalSpeed="6.81" duration="149.50" routeLength="997.23" waitingTime="0.00" waitingCount="0" stopTime="0.00" timeLoss="6.84" rerouteNo="0" devices="tripinfo_up_right_70" vType="car@up_right_70" speedFactor="1.02" vaporized=""/>