<?xml version="1.0" encoding="UTF-8"?>

<!-- generated on 2021-05-23 20:03:21 by Eclipse SUMO GUI Version 1.9.2
<configuration xmlns:xsi="http://www.w3.org/2001/XMLSchema-instance" xsi:noNamespaceSchemaLocation="http://sumo.dlr.de/xsd/sumoConfiguration.xsd">

    <input>
        <net-file value="data/cross.net.xml"/>
        <route-files value="data/cross.rou.xml"/>
        <additional-files value="data/cross.det.xml"/>
    </input>

    <output>
        <tripinfo-output value="tripinfo.xml"/>
    </output>

    <time>
        <begin value="0"/>
        <step-length value=".5"/>
    </time>

    <processing>
        <collision.action value="none"/>
    </processing>

    <report>
        <verbose value="true"/>
        <no-step-log value="true"/>
    </report>

    <traci_server>
        <remote-port value="43651"/>
    </traci_server>

    <gui_only>
        <tracker-interval value="0.5"/>
    </gui_only>

</configuration>
-->

<tripinfos xmlns:xsi="http://www.w3.org/2001/XMLSchema-instance" xsi:noNamespaceSchemaLocation="http://sumo.dlr.de/xsd/tripinfo_file.xsd">
    <tripinfo id="down_0" depart="1.00" departLane="54o_0" departPos="4.60" departSpeed="0.00" departDelay="0.00" arrival="153.50" arrivalLane="53i_1" arrivalPos="6.00" arrivalSpeed="6.84" duration="152.50" routeLength="1015.40" waitingTime="0.00" waitingCount="0" stopTime="0.00" timeLoss="7.23" rerouteNo="0" devices="tripinfo_down_0" vType="car@down_0" speedFactor="1.06" vaporized=""/>
    <tripinfo id="up_right_1" depart="4.00" departLane="53o_0" departPos="4.60" departSpeed="0.00" departDelay="0.00" arrival="153.50" arrivalLane="52i_1" arrivalPos="6.00" arrivalSpeed="6.89" duration="149.50" routeLength="997.23" waitingTime="0.00" waitingCount="0" stopTime="0.00" timeLoss="6.61" rerouteNo="0" devices="tripinfo_up_right_1" vType="car@up_right_1" speedFactor="0.94" vaporized=""/>
    <tripinfo id="right_2" depart="10.00" departLane="51o_0" departPos="4.60" departSpeed="0.00" departDelay="0.00" arrival="164.00" arrivalLane="52i_1" arrivalPos="6.00" arrivalSpeed="6.82" duration="154.00" routeLength="1015.40" waitingTime="0.00" waitingCount="0" stopTime="0.00" timeLoss="8.52" rerouteNo="0" devices="tripinfo_right_2" vType="car@right_2" speedFactor="1.01" vaporized=""/>
    <tripinfo id="down_right_3" depart="16.00" departLane="54o_0" departPos="4.60" departSpeed="0.00" departDelay="0.00" arrival="170.50" arrivalLane="52i_1" arrivalPos="6.00" arrivalSpeed="6.83" duration="154.50" routeLength="1012.71" waitingTime="0.00" waitingCount="0" stopTime="0.00" timeLoss="9.37" rerouteNo="0" devices="tripinfo_down_right_3" vType="car@down_right_3" speedFactor="1.08" vaporized=""/>
    <tripinfo id="down_left_7" depart="34.00" departLane="54o_0" departPos="4.60" departSpeed="0.00" departDelay="0.00" arrival="183.50" arrivalLane="51i_1" arrivalPos="6.00" arrivalSpeed="6.79" duration="149.50" routeLength="997.23" waitingTime="0.00" waitingCount="0" stopTime="0.00" timeLoss="6.90" rerouteNo="0" devices="tripinfo_down_left_7" vType="car@down_left_7" speedFactor="0.89" vaporized=""/>
    <tripinfo id="up_4" depart="23.00" departLane="53o_0" departPos="4.60" departSpeed="0.00" departDelay="0.00" arrival="185.50" arrivalLane="54i_1" arrivalPos="6.00" arrivalSpeed="6.79" duration="162.50" routeLength="1015.40" waitingTime="1.00" waitingCount="2" stopTime="0.00" timeLoss="17.03" rerouteNo="0" devices="tripinfo_up_4" vType="car@up_4" speedFactor="1.03" vaporized=""/>
    <tripinfo id="down_5" depart="24.00" departLane="54o_0" departPos="4.60" departSpeed="0.00" departDelay="0.00" arrival="190.00" arrivalLane="53i_1" arrivalPos="6.00" arrivalSpeed="6.89" duration="166.00" routeLength="1015.40" waitingTime="2.50" waitingCount="4" stopTime="0.00" timeLoss="20.49" rerouteNo="0" devices="tripinfo_down_5" vType="car@down_5" speedFactor="0.83" vaporized=""/>
    <tripinfo id="up_10" depart="56.00" departLane="53o_0" departPos="4.60" departSpeed="0.00" departDelay="0.00" arrival="214.00" arrivalLane="54i_1" arrivalPos="6.00" arrivalSpeed="6.99" duration="158.00" routeLength="1015.40" waitingTime="0.00" waitingCount="0" stopTime="0.00" timeLoss="12.68" rerouteNo="0" devices="tripinfo_up_10" vType="car@up_10" speedFactor="1.09" vaporized=""/>
    <tripinfo id="right_up_6" depart="28.00" departLane="51o_0" departPos="4.60" departSpeed="0.00" departDelay="0.00" arrival="216.00" arrivalLane="54i_1" arrivalPos="6.00" arrivalSpeed="6.96" duration="188.00" routeLength="1012.71" waitingTime="14.00" waitingCount="10" stopTime="0.00" timeLoss="42.92" rerouteNo="0" devices="tripinfo_right_up_6" vType="car@right_up_6" speedFactor="1.05" vaporized=""/>
    <tripinfo id="left_8" depart="38.00" departLane="52o_0" departPos="4.60" departSpeed="0.00" departDelay="0.00" arrival="228.50" arrivalLane="51i_1" arrivalPos="6.00" arrivalSpeed="6.82" duration="190.50" routeLength="1015.40" waitingTime="13.50" waitingCount="16" stopTime="0.00" timeLoss="45.11" rerouteNo="0" devices="tripinfo_left_8" vType="car@left_8" speedFactor="0.94" vaporized=""/>
    <tripinfo id="down_11" depart="65.00" departLane="54o_0" departPos="4.60" departSpeed="0.00" departDelay="0.00" arrival="240.50" arrivalLane="53i_1" arrivalPos="6.00" arrivalSpeed="6.98" duration="175.50" routeLength="1015.40" waitingTime="6.50" waitingCount="7" stopTime="0.00" timeLoss="30.03" rerouteNo="0" devices="tripinfo_down_11" vType="car@down_11" speedFactor="1.03" vaporized=""/>
    <tripinfo id="up_15" depart="97.00" departLane="53o_0" departPos="4.60" departSpeed="0.00" departDelay="0.00" arrival="249.50" arrivalLane="54i_1" arrivalPos="6.00" arrivalSpeed="6.97" duration="152.50" routeLength="1015.40" waitingTime="0.00" waitingCount="0" stopTime="0.00" timeLoss="7.09" rerouteNo="0" devices="tripinfo_up_15" vType="car@up_15" speedFactor="0.93" vaporized=""/>
    <tripinfo id="right_up_9" depart="50.00" departLane="51o_0" departPos="4.60" departSpeed="0.00" departDelay="0.00" arrival="253.50" arrivalLane="54i_1" arrivalPos="6.00" arrivalSpeed="6.79" duration="203.50" routeLength="1012.71" waitingTime="46.00" waitingCount="1" stopTime="0.00" timeLoss="58.78" rerouteNo="0" devices="tripinfo_right_up_9" vType="car@right_up_9" speedFactor="0.86" vaporized=""/>
    <tripinfo id="left_13" depart="87.00" departLane="52o_0" departPos="4.60" departSpeed="0.00" departDelay="0.00" arrival="258.50" arrivalLane="51i_1" arrivalPos="6.00" arrivalSpeed="6.91" duration="171.50" routeLength="1015.40" waitingTime="5.50" waitingCount="5" stopTime="0.00" timeLoss="26.14" rerouteNo="0" devices="tripinfo_left_13" vType="car@left_13" speedFactor="1.12" vaporized=""/>
    <tripinfo id="right_up_12" depart="69.00" departLane="51o_0" departPos="4.60" departSpeed="0.00" departDelay="0.00" arrival="267.50" arrivalLane="54i_1" arrivalPos="6.00" arrivalSpeed="6.92" duration="198.50" routeLength="1012.71" waitingTime="27.00" waitingCount="2" stopTime="0.00" timeLoss="53.68" rerouteNo="0" devices="tripinfo_right_up_12" vType="car@right_up_12" speedFactor="1.05" vaporized=""/>
    <tripinfo id="up_left_16" depart="122.00" departLane="53o_0" departPos="4.60" departSpeed="0.00" departDelay="0.00" arrival="277.50" arrivalLane="51i_1" arrivalPos="6.00" arrivalSpeed="6.94" duration="155.50" routeLength="1012.71" waitingTime="0.00" waitingCount="0" stopTime="0.00" timeLoss="10.74" rerouteNo="0" devices="tripinfo_up_left_16" vType="car@up_left_16" speedFactor="0.88" vaporized=""/>
    <tripinfo id="right_up_14" depart="88.00" departLane="51o_0" departPos="4.60" departSpeed="0.00" departDelay="0.00" arrival="297.00" arrivalLane="54i_1" arrivalPos="6.00" arrivalSpeed="6.84" duration="209.00" routeLength="1012.71" waitingTime="30.00" waitingCount="3" stopTime="0.00" timeLoss="64.04" rerouteNo="0" devices="tripinfo_right_up_14" vType="car@right_up_14" speedFactor="0.99" vaporized=""/>
    <tripinfo id="left_17" depart="137.00" departLane="52o_0" departPos="4.60" departSpeed="0.00" departDelay="0.00" arrival="304.50" arrivalLane="51i_1" arrivalPos="6.00" arrivalSpeed="6.88" duration="167.50" routeLength="1015.40" waitingTime="3.50" waitingCount="4" stopTime="0.00" timeLoss="22.41" rerouteNo="0" devices="tripinfo_left_17" vType="car@left_17" speedFactor="0.94" vaporized=""/>
    <tripinfo id="up_right_19" depart="158.00" departLane="53o_0" departPos="4.60" departSpeed="0.00" departDelay="0.00" arrival="308.00" arrivalLane="52i_1" arrivalPos="6.00" arrivalSpeed="6.98" duration="150.00" routeLength="997.23" waitingTime="0.00" waitingCount="0" stopTime="0.00" timeLoss="7.29" rerouteNo="0" devices="tripinfo_up_right_19" vType="car@up_right_19" speedFactor="1.16" vaporized=""/>
    <tripinfo id="left_up_20" depart="163.00" departLane="52o_0" departPos="4.60" departSpeed="0.00" departDelay="0.00" arrival="312.50" arrivalLane="54i_1" arrivalPos="6.00" arrivalSpeed="6.94" duration="149.50" routeLength="997.23" waitingTime="0.00" waitingCount="0" stopTime="0.00" timeLoss="7.03" rerouteNo="0" devices="tripinfo_left_up_20" vType="car@left_up_20" speedFactor="1.02" vaporized=""/>
    <tripinfo id="down_18" depart="149.00" departLane="54o_0" departPos="4.60" departSpeed="0.00" departDelay="0.00" arrival="318.00" arrivalLane="53i_1" arrivalPos="6.00" arrivalSpeed="6.84" duration="169.00" routeLength="1015.40" waitingTime="3.50" waitingCount="4" stopTime="0.00" timeLoss="23.60" rerouteNo="0" devices="tripinfo_down_18" vType="car@down_18" speedFactor="0.94" vaporized=""/>
    <tripinfo id="left_up_22" depart="173.00" departLane="52o_0" departPos="4.60" departSpeed="0.00" departDelay="0.00" arrival="322.50" arrivalLane="54i_1" arrivalPos="6.00" arrivalSpeed="6.78" duration="149.50" routeLength="997.23" waitingTime="0.00" waitingCount="0" stopTime="0.00" timeLoss="6.67" rerouteNo="0" devices="tripinfo_left_up_22" vType="car@left_up_22" speedFactor="0.98" vaporized=""/>
    <tripinfo id="right_down_21" depart="173.00" departLane="51o_0" departPos="4.60" departSpeed="0.00" departDelay="0.00" arrival="323.00" arrivalLane="53i_1" arrivalPos="6.00" arrivalSpeed="6.95" duration="150.00" routeLength="997.23" waitingTime="0.00" waitingCount="0" stopTime="0.00" timeLoss="7.25" rerouteNo="0" devices="tripinfo_right_down_21" vType="car@right_down_21" speedFactor="1.01" vaporized=""/>
    <tripinfo id="down_23" depart="181.00" departLane="54o_0" departPos="4.60" departSpeed="0.00" departDelay="0.00" arrival="333.50" arrivalLane="53i_1" arrivalPos="6.00" arrivalSpeed="6.85" duration="152.50" routeLength="1015.40" waitingTime="0.00" waitingCount="0" stopTime="0.00" timeLoss="7.42" rerouteNo="0" devices="tripinfo_down_23" vType="car@down_23" speedFactor="0.89" vaporized=""/>
    <tripinfo id="up_left_24" depart="185.00" departLane="53o_0" departPos="4.60" departSpeed="0.00" departDelay="0.00" arrival="344.00" arrivalLane="51i_1" arrivalPos="6.00" arrivalSpeed="6.83" duration="159.00" routeLength="1012.71" waitingTime="0.00" waitingCount="0" stopTime="0.00" timeLoss="14.15" rerouteNo="0" devices="tripinfo_up_left_24" vType="car@up_left_24" speedFactor="0.83" vaporized=""/>
    <tripinfo id="down_left_25" depart="208.00" departLane="54o_0" departPos="4.60" departSpeed="0.00" departDelay="0.00" arrival="358.00" arrivalLane="51i_1" arrivalPos="6.00" arrivalSpeed="6.81" duration="150.00" routeLength="997.23" waitingTime="0.00" waitingCount="0" stopTime="0.00" timeLoss="7.15" rerouteNo="0" devices="tripinfo_down_left_25" vType="car@down_left_25" speedFactor="0.87" vaporized=""/>
    <tripinfo id="down_right_26" depart="211.00" departLane="54o_0" departPos="4.60" departSpeed="0.00" departDelay="0.00" arrival="364.50" arrivalLane="52i_1" arrivalPos="6.00" arrivalSpeed="6.93" duration="153.50" routeLength="1012.71" waitingTime="0.50" waitingCount="1" stopTime="0.00" timeLoss="8.64" rerouteNo="0" devices="tripinfo_down_right_26" vType="car@down_right_26" speedFactor="0.92" vaporized=""/>
    <tripinfo id="down_left_30" depart="230.00" departLane="54o_0" departPos="4.60" departSpeed="0.00" departDelay="0.00" arrival="379.50" arrivalLane="51i_1" arrivalPos="6.00" arrivalSpeed="6.89" duration="149.50" routeLength="997.23" waitingTime="0.00" waitingCount="0" stopTime="0.00" timeLoss="7.01" rerouteNo="0" devices="tripinfo_down_left_30" vType="car@down_left_30" speedFactor="1.18" vaporized=""/>
    <tripinfo id="up_left_28" depart="225.00" departLane="53o_0" departPos="4.60" departSpeed="0.00" departDelay="0.00" arrival="393.00" arrivalLane="51i_1" arrivalPos="6.00" arrivalSpeed="6.76" duration="168.00" routeLength="1012.71" waitingTime="6.00" waitingCount="4" stopTime="0.00" timeLoss="23.07" rerouteNo="0" devices="tripinfo_up_left_28" vType="car@up_left_28" speedFactor="1.13" vaporized=""/>
    <tripinfo id="right_up_31" depart="234.00" departLane="51o_0" departPos="4.60" departSpeed="0.00" departDelay="0.00" arrival="407.00" arrivalLane="54i_1" arrivalPos="6.00" arrivalSpeed="6.95" duration="173.00" routeLength="1012.71" waitingTime="14.50" waitingCount="3" stopTime="0.00" timeLoss="28.01" rerouteNo="0" devices="tripinfo_right_up_31" vType="car@right_up_31" speedFactor="1.15" vaporized=""/>
    <tripinfo id="left_27" depart="223.00" departLane="52o_0" departPos="4.60" departSpeed="0.00" departDelay="0.00" arrival="407.50" arrivalLane="51i_1" arrivalPos="6.00" arrivalSpeed="6.86" duration="184.50" routeLength="1015.40" waitingTime="13.50" waitingCount="10" stopTime="0.00" timeLoss="39.13" rerouteNo="0" devices="tripinfo_left_27" vType="car@left_27" speedFactor="0.95" vaporized=""/>
    <tripinfo id="up_left_29" depart="227.00" departLane="53o_0" departPos="4.60" departSpeed="0.00" departDelay="0.00" arrival="413.50" arrivalLane="51i_1" arrivalPos="6.00" arrivalSpeed="6.81" duration="186.50" routeLength="1012.71" waitingTime="6.00" waitingCount="6" stopTime="0.00" timeLoss="41.53" rerouteNo="0" devices="tripinfo_up_left_29" vType="car@up_left_29" speedFactor="0.93" vaporized=""/>
    <tripinfo id="down_32" depart="258.00" departLane="54o_0" departPos="4.60" departSpeed="0.00" departDelay="0.00" arrival="422.50" arrivalLane="53i_1" arrivalPos="6.00" arrivalSpeed="6.98" duration="164.50" routeLength="1015.40" waitingTime="2.00" waitingCount="2" stopTime="0.00" timeLoss="19.00" rerouteNo="0" devices="tripinfo_down_32" vType="car@down_32" speedFactor="1.01" vaporized=""/>
    <tripinfo id="down_left_34" depart="275.00" departLane="54o_0" departPos="4.60" departSpeed="0.00" departDelay="0.00" arrival="425.00" arrivalLane="51i_1" arrivalPos="6.00" arrivalSpeed="6.86" duration="150.00" routeLength="997.23" waitingTime="0.00" waitingCount="0" stopTime="0.00" timeLoss="7.36" rerouteNo="0" devices="tripinfo_down_left_34" vType="car@down_left_34" speedFactor="0.99" vaporized=""/>
    <tripinfo id="right_33" depart="265.00" departLane="51o_0" departPos="4.60" departSpeed="0.00" departDelay="0.00" arrival="430.00" arrivalLane="52i_1" arrivalPos="6.00" arrivalSpeed="6.93" duration="165.00" routeLength="1015.40" waitingTime="2.00" waitingCount="3" stopTime="0.00" timeLoss="19.87" rerouteNo="0" devices="tripinfo_right_33" vType="car@right_33" speedFactor="1.17" vaporized=""/>
    <tripinfo id="up_right_35" depart="281.00" departLane="53o_0" departPos="4.60" departSpeed="0.00" departDelay="0.00" arrival="432.00" arrivalLane="52i_1" arrivalPos="6.00" arrivalSpeed="6.83" duration="151.00" routeLength="997.23" waitingTime="0.00" waitingCount="0" stopTime="0.00" timeLoss="8.39" rerouteNo="0" devices="tripinfo_up_right_35" vType="car@up_right_35" speedFactor="1.02" vaporized=""/>
    <tripinfo id="left_36" depart="286.00" departLane="52o_0" departPos="4.60" departSpeed="0.00" departDelay="0.00" arrival="438.00" arrivalLane="51i_1" arrivalPos="6.00" arrivalSpeed="6.82" duration="152.00" routeLength="1015.40" waitingTime="0.00" waitingCount="0" stopTime="0.00" timeLoss="6.66" rerouteNo="0" devices="tripinfo_left_36" vType="car@left_36" speedFactor="0.97" vaporized=""/>
    <tripinfo id="up_left_38" depart="305.00" departLane="53o_0" departPos="4.60" departSpeed="0.00" departDelay="0.00" arrival="468.50" arrivalLane="51i_1" arrivalPos="6.00" arrivalSpeed="6.85" duration="163.50" routeLength="1012.71" waitingTime="0.00" waitingCount="0" stopTime="0.00" timeLoss="18.64" rerouteNo="0" devices="tripinfo_up_left_38" vType="car@up_left_38" speedFactor="1.10" vaporized=""/>
    <tripinfo id="down_right_42" depart="325.00" departLane="54o_0" departPos="4.60" departSpeed="0.00" departDelay="0.00" arrival="478.00" arrivalLane="52i_1" arrivalPos="6.00" arrivalSpeed="6.82" duration="153.00" routeLength="1012.71" waitingTime="0.00" waitingCount="0" stopTime="0.00" timeLoss="8.12" rerouteNo="0" devices="tripinfo_down_right_42" vType="car@down_right_42" speedFactor="1.09" vaporized=""/>
    <tripinfo id="down_43" depart="329.00" departLane="54o_0" departPos="4.60" departSpeed="0.00" departDelay="0.00" arrival="481.50" arrivalLane="53i_1" arrivalPos="6.00" arrivalSpeed="6.78" duration="152.50" routeLength="1015.40" waitingTime="0.00" waitingCount="0" stopTime="0.00" timeLoss="7.00" rerouteNo="0" devices="tripinfo_down_43" vType="car@down_43" speedFactor="1.04" vaporized=""/>
    <tripinfo id="down_left_44" depart="332.00" departLane="54o_0" departPos="4.60" departSpeed="0.00" departDelay="0.00" arrival="481.50" arrivalLane="51i_1" arrivalPos="6.00" arrivalSpeed="6.81" duration="149.50" routeLength="997.23" waitingTime="0.00" waitingCount="0" stopTime="0.00" timeLoss="6.68" rerouteNo="0" devices="tripinfo_down_left_44" vType="car@down_left_44" speedFactor="1.04" vaporized=""/>
    <tripinfo id="up_left_39" depart="313.00" departLane="53o_0" departPos="4.60" departSpeed="0.00" departDelay="0.00" arrival="483.00" arrivalLane="51i_1" arrivalPos="6.00" arrivalSpeed="6.80" duration="170.00" routeLength="1012.71" waitingTime="4.00" waitingCount="3" stopTime="0.00" timeLoss="25.34" rerouteNo="0" devices="tripinfo_up_left_39" vType="car@up_left_39" speedFactor="0.90" vaporized=""/>
    <tripinfo id="up_left_40" depart="317.00" departLane="53o_0" departPos="4.60" departSpeed="0.00" departDelay="0.00" arrival="502.00" arrivalLane="51i_1" arrivalPos="6.00" arrivalSpeed="6.79" duration="185.00" routeLength="1012.71" waitingTime="10.50" waitingCount="11" stopTime="0.00" timeLoss="39.90" rerouteNo="0" devices="tripinfo_up_left_40" vType="car@up_left_40" speedFactor="1.03" vaporized=""/>
    <tripinfo id="up_left_45" depart="346.00" departLane="53o_0" departPos="4.60" departSpeed="0.00" departDelay="0.00" arrival="509.00" arrivalLane="51i_1" arrivalPos="6.00" arrivalSpeed="6.91" duration="163.00" routeLength="1012.71" waitingTime="1.50" waitingCount="2" stopTime="0.00" timeLoss="18.32" rerouteNo="0" devices="tripinfo_up_left_45" vType="car@up_left_45" speedFactor="1.09" vaporized=""/>
    <tripinfo id="up_left_46" depart="358.00" departLane="53o_0" departPos="4.60" departSpeed="0.00" departDelay="0.00" arrival="519.50" arrivalLane="51i_1" arrivalPos="6.00" arrivalSpeed="6.94" duration="161.50" routeLength="1012.71" waitingTime="1.50" waitingCount="1" stopTime="0.00" timeLoss="16.66" rerouteNo="0" devices="tripinfo_up_left_46" vType="car@up_left_46" speedFactor="1.00" vaporized=""/>
    <tripinfo id="right_41" depart="321.00" departLane="51o_0" departPos="4.60" departSpeed="0.00" departDelay="0.00" arrival="531.50" arrivalLane="52i_1" arrivalPos="6.00" arrivalSpeed="6.87" duration="210.50" routeLength="1015.40" waitingTime="40.50" waitingCount="7" stopTime="0.00" timeLoss="65.14" rerouteNo="0" devices="tripinfo_right_41" vType="car@right_41" speedFactor="0.96" vaporized=""/>
    <tripinfo id="left_down_37" depart="304.00" departLane="52o_0" departPos="4.60" departSpeed="0.00" departDelay="0.00" arrival="541.00" arrivalLane="53i_1" arrivalPos="6.00" arrivalSpeed="6.81" duration="237.00" routeLength="1012.71" waitingTime="64.50" waitingCount="7" stopTime="0.00" timeLoss="92.19" rerouteNo="0" devices="tripinfo_left_down_37" vType="car@left_down_37" speedFactor="1.18" vaporized=""/>
</tripinfos>
