<?xml version="1.0" encoding="UTF-8"?>

<!-- generated on 2021-05-29 06:04:06 by Eclipse SUMO sumo Version 1.9.2
<configuration xmlns:xsi="http://www.w3.org/2001/XMLSchema-instance" xsi:noNamespaceSchemaLocation="http://sumo.dlr.de/xsd/sumoConfiguration.xsd">

    <input>
        <net-file value="data/cross.net.xml"/>
        <route-files value="data/cross.rou.xml"/>
        <additional-files value="data/cross.det.xml"/>
    </input>

    <output>
        <tripinfo-output value="tripinfo.xml"/>
    </output>

    <time>
        <begin value="0"/>
        <step-length value=".5"/>
    </time>

    <processing>
        <collision.action value="none"/>
        <collision.mingap-factor value="0"/>
        <time-to-teleport value="-1"/>
        <time-to-teleport.highways value="-1"/>
    </processing>

    <report>
        <verbose value="true"/>
        <no-step-log value="true"/>
    </report>

    <traci_server>
        <remote-port value="36693"/>
    </traci_server>

    <gui_only>
        <tracker-interval value="0.5"/>
    </gui_only>

</configuration>
-->

<tripinfos xmlns:xsi="http://www.w3.org/2001/XMLSchema-instance" xsi:noNamespaceSchemaLocation="http://sumo.dlr.de/xsd/tripinfo_file.xsd">
    <tripinfo id="down_1" depart="1.00" departLane="54o_0" departPos="4.60" departSpeed="0.00" departDelay="0.00" arrival="153.50" arrivalLane="53i_1" arrivalPos="6.00" arrivalSpeed="2.51" duration="152.50" routeLength="1015.40" waitingTime="0.00" waitingCount="0" stopTime="0.00" timeLoss="7.32" rerouteNo="0" devices="tripinfo_down_1" vType="car@down_1" speedFactor="0.94" vaporized=""/>
    <tripinfo id="up_2" depart="1.50" departLane="53o_0" departPos="4.60" departSpeed="0.00" departDelay="0.00" arrival="154.00" arrivalLane="54i_1" arrivalPos="6.00" arrivalSpeed="2.73" duration="152.50" routeLength="1015.40" waitingTime="0.00" waitingCount="0" stopTime="0.00" timeLoss="7.42" rerouteNo="0" devices="tripinfo_up_2" vType="car@up_2" speedFactor="1.01" vaporized=""/>
    <tripinfo id="down_4" depart="2.00" departLane="54o_0" departPos="4.60" departSpeed="0.00" departDelay="0.00" arrival="156.50" arrivalLane="53i_1" arrivalPos="6.00" arrivalSpeed="4.08" duration="154.50" routeLength="1015.40" waitingTime="2.00" waitingCount="1" stopTime="0.00" timeLoss="9.43" rerouteNo="0" devices="tripinfo_down_4" vType="car@down_4" speedFactor="1.03" vaporized=""/>
    <tripinfo id="up_6" depart="2.50" departLane="53o_0" departPos="4.60" departSpeed="0.00" departDelay="0.00" arrival="157.50" arrivalLane="54i_1" arrivalPos="6.00" arrivalSpeed="2.85" duration="155.00" routeLength="1015.40" waitingTime="2.00" waitingCount="1" stopTime="0.00" timeLoss="9.94" rerouteNo="0" devices="tripinfo_up_6" vType="car@up_6" speedFactor="1.05" vaporized=""/>
    <tripinfo id="down_11" depart="4.50" departLane="54o_0" departPos="4.60" departSpeed="0.00" departDelay="1.00" arrival="160.00" arrivalLane="53i_1" arrivalPos="6.00" arrivalSpeed="3.17" duration="155.50" routeLength="1015.40" waitingTime="2.50" waitingCount="1" stopTime="0.00" timeLoss="10.38" rerouteNo="0" devices="tripinfo_down_11" vType="car@down_11" speedFactor="1.03" vaporized=""/>
    <tripinfo id="up_9" depart="5.00" departLane="53o_0" departPos="4.60" departSpeed="0.00" departDelay="2.00" arrival="161.00" arrivalLane="54i_1" arrivalPos="6.00" arrivalSpeed="3.99" duration="156.00" routeLength="1015.40" waitingTime="2.50" waitingCount="1" stopTime="0.00" timeLoss="10.86" rerouteNo="0" devices="tripinfo_up_9" vType="car@up_9" speedFactor="0.86" vaporized=""/>
    <tripinfo id="down_12" depart="8.00" departLane="54o_0" departPos="4.60" departSpeed="0.00" departDelay="2.50" arrival="163.50" arrivalLane="53i_1" arrivalPos="6.00" arrivalSpeed="2.90" duration="155.50" routeLength="1015.40" waitingTime="2.50" waitingCount="1" stopTime="0.00" timeLoss="10.32" rerouteNo="0" devices="tripinfo_down_12" vType="car@down_12" speedFactor="1.05" vaporized=""/>
    <tripinfo id="up_24" depart="12.50" departLane="53o_0" departPos="4.60" departSpeed="0.00" departDelay="0.00" arrival="165.00" arrivalLane="54i_1" arrivalPos="6.00" arrivalSpeed="3.64" duration="152.50" routeLength="1015.40" waitingTime="0.00" waitingCount="0" stopTime="0.00" timeLoss="7.37" rerouteNo="0" devices="tripinfo_up_24" vType="car@up_24" speedFactor="0.83" vaporized=""/>
    <tripinfo id="down_14" depart="11.50" departLane="54o_0" departPos="4.60" departSpeed="0.00" departDelay="5.50" arrival="166.50" arrivalLane="53i_1" arrivalPos="6.00" arrivalSpeed="3.39" duration="155.00" routeLength="1015.40" waitingTime="2.50" waitingCount="1" stopTime="0.00" timeLoss="9.93" rerouteNo="0" devices="tripinfo_down_14" vType="car@down_14" speedFactor="0.99" vaporized=""/>
    <tripinfo id="up_31" depart="16.00" departLane="53o_0" departPos="4.60" departSpeed="0.00" departDelay="0.00" arrival="168.00" arrivalLane="54i_1" arrivalPos="6.00" arrivalSpeed="4.08" duration="152.00" routeLength="1015.40" waitingTime="0.00" waitingCount="0" stopTime="0.00" timeLoss="6.92" rerouteNo="0" devices="tripinfo_up_31" vType="car@up_31" speedFactor="1.15" vaporized=""/>
    <tripinfo id="down_17" depart="14.50" departLane="54o_0" departPos="4.60" departSpeed="0.00" departDelay="7.00" arrival="170.00" arrivalLane="53i_1" arrivalPos="6.00" arrivalSpeed="2.87" duration="155.50" routeLength="1015.40" waitingTime="2.50" waitingCount="1" stopTime="0.00" timeLoss="10.38" rerouteNo="0" devices="tripinfo_down_17" vType="car@down_17" speedFactor="0.94" vaporized=""/>
    <tripinfo id="up_35" depart="19.50" departLane="53o_0" departPos="4.60" departSpeed="0.00" departDelay="0.00" arrival="171.50" arrivalLane="54i_1" arrivalPos="6.00" arrivalSpeed="4.10" duration="152.00" routeLength="1015.40" waitingTime="0.00" waitingCount="0" stopTime="0.00" timeLoss="6.94" rerouteNo="0" devices="tripinfo_up_35" vType="car@up_35" speedFactor="1.02" vaporized=""/>
    <tripinfo id="down_21" depart="18.00" departLane="54o_0" departPos="4.60" departSpeed="0.00" departDelay="7.00" arrival="173.50" arrivalLane="53i_1" arrivalPos="6.00" arrivalSpeed="2.27" duration="155.50" routeLength="1015.40" waitingTime="2.50" waitingCount="1" stopTime="0.00" timeLoss="10.31" rerouteNo="0" devices="tripinfo_down_21" vType="car@down_21" speedFactor="1.01" vaporized=""/>
    <tripinfo id="up_39" depart="22.00" departLane="53o_0" departPos="4.60" departSpeed="0.00" departDelay="0.00" arrival="175.00" arrivalLane="54i_1" arrivalPos="6.00" arrivalSpeed="3.43" duration="153.00" routeLength="1015.40" waitingTime="0.50" waitingCount="1" stopTime="0.00" timeLoss="7.91" rerouteNo="0" devices="tripinfo_up_39" vType="car@up_39" speedFactor="0.90" vaporized=""/>
    <tripinfo id="down_36" depart="21.50" departLane="54o_0" departPos="4.60" departSpeed="0.00" departDelay="1.00" arrival="176.50" arrivalLane="53i_1" arrivalPos="6.00" arrivalSpeed="2.65" duration="155.00" routeLength="1015.40" waitingTime="2.00" waitingCount="1" stopTime="0.00" timeLoss="9.84" rerouteNo="0" devices="tripinfo_down_36" vType="car@down_36" speedFactor="0.97" vaporized=""/>
    <tripinfo id="up_42" depart="23.50" departLane="53o_0" departPos="4.60" departSpeed="0.00" departDelay="0.00" arrival="178.50" arrivalLane="54i_1" arrivalPos="6.00" arrivalSpeed="3.02" duration="155.00" routeLength="1015.40" waitingTime="2.50" waitingCount="1" stopTime="0.00" timeLoss="9.88" rerouteNo="0" devices="tripinfo_up_42" vType="car@up_42" speedFactor="1.09" vaporized=""/>
    <tripinfo id="down_46" depart="26.00" departLane="54o_0" departPos="4.60" departSpeed="0.00" departDelay="0.00" arrival="179.50" arrivalLane="53i_1" arrivalPos="6.00" arrivalSpeed="3.32" duration="153.50" routeLength="1015.40" waitingTime="1.00" waitingCount="1" stopTime="0.00" timeLoss="8.43" rerouteNo="0" devices="tripinfo_down_46" vType="car@down_46" speedFactor="1.00" vaporized=""/>
    <tripinfo id="up_43" depart="26.50" departLane="53o_0" departPos="4.60" departSpeed="0.00" departDelay="1.50" arrival="182.50" arrivalLane="54i_1" arrivalPos="6.00" arrivalSpeed="2.71" duration="156.00" routeLength="1015.40" waitingTime="2.50" waitingCount="1" stopTime="0.00" timeLoss="10.91" rerouteNo="0" devices="tripinfo_up_43" vType="car@up_43" speedFactor="1.04" vaporized=""/>
    <tripinfo id="down_50" depart="27.50" departLane="54o_0" departPos="4.60" departSpeed="0.00" departDelay="0.50" arrival="182.50" arrivalLane="53i_1" arrivalPos="6.00" arrivalSpeed="4.04" duration="155.00" routeLength="1015.40" waitingTime="2.50" waitingCount="1" stopTime="0.00" timeLoss="9.93" rerouteNo="0" devices="tripinfo_down_50" vType="car@down_50" speedFactor="0.85" vaporized=""/>
    <tripinfo id="up_44" depart="30.00" departLane="53o_0" departPos="4.60" departSpeed="0.00" departDelay="4.50" arrival="185.00" arrivalLane="54i_1" arrivalPos="6.00" arrivalSpeed="3.42" duration="155.00" routeLength="1015.40" waitingTime="2.50" waitingCount="1" stopTime="0.00" timeLoss="9.94" rerouteNo="0" devices="tripinfo_up_44" vType="car@up_44" speedFactor="1.04" vaporized=""/>
    <tripinfo id="down_52" depart="31.00" departLane="54o_0" departPos="4.60" departSpeed="0.00" departDelay="3.50" arrival="185.50" arrivalLane="53i_1" arrivalPos="6.00" arrivalSpeed="3.71" duration="154.50" routeLength="1015.40" waitingTime="2.00" waitingCount="1" stopTime="0.00" timeLoss="9.41" rerouteNo="0" devices="tripinfo_down_52" vType="car@down_52" speedFactor="1.02" vaporized=""/>
    <tripinfo id="up_58" depart="33.50" departLane="53o_0" departPos="4.60" departSpeed="0.00" departDelay="3.50" arrival="188.00" arrivalLane="54i_1" arrivalPos="6.00" arrivalSpeed="2.82" duration="154.50" routeLength="1015.40" waitingTime="2.00" waitingCount="1" stopTime="0.00" timeLoss="9.34" rerouteNo="0" devices="tripinfo_up_58" vType="car@up_58" speedFactor="1.02" vaporized=""/>
    <tripinfo id="down_62" depart="34.00" departLane="54o_0" departPos="4.60" departSpeed="0.00" departDelay="1.50" arrival="189.50" arrivalLane="53i_1" arrivalPos="6.00" arrivalSpeed="2.53" duration="155.50" routeLength="1015.40" waitingTime="2.50" waitingCount="1" stopTime="0.00" timeLoss="10.38" rerouteNo="0" devices="tripinfo_down_62" vType="car@down_62" speedFactor="1.02" vaporized=""/>
    <tripinfo id="up_59" depart="36.50" departLane="53o_0" departPos="4.60" departSpeed="0.00" departDelay="5.50" arrival="191.50" arrivalLane="54i_1" arrivalPos="6.00" arrivalSpeed="2.45" duration="155.00" routeLength="1015.40" waitingTime="2.00" waitingCount="1" stopTime="0.00" timeLoss="9.83" rerouteNo="0" devices="tripinfo_up_59" vType="car@up_59" speedFactor="0.97" vaporized=""/>
    <tripinfo id="down_71" depart="38.00" departLane="54o_0" departPos="4.60" departSpeed="0.00" departDelay="0.00" arrival="193.50" arrivalLane="53i_1" arrivalPos="6.00" arrivalSpeed="2.21" duration="155.50" routeLength="1015.40" waitingTime="2.00" waitingCount="1" stopTime="0.00" timeLoss="10.30" rerouteNo="0" devices="tripinfo_down_71" vType="car@down_71" speedFactor="0.97" vaporized=""/>
    <tripinfo id="up_65" depart="39.50" departLane="53o_0" departPos="4.60" departSpeed="0.00" departDelay="4.00" arrival="194.50" arrivalLane="54i_1" arrivalPos="6.00" arrivalSpeed="2.43" duration="155.00" routeLength="1015.40" waitingTime="2.00" waitingCount="1" stopTime="0.00" timeLoss="9.80" rerouteNo="0" devices="tripinfo_up_65" vType="car@up_65" speedFactor="0.88" vaporized=""/>
    <tripinfo id="down_74" depart="41.00" departLane="54o_0" departPos="4.60" departSpeed="0.00" departDelay="2.50" arrival="196.50" arrivalLane="53i_1" arrivalPos="6.00" arrivalSpeed="2.42" duration="155.50" routeLength="1015.40" waitingTime="2.50" waitingCount="1" stopTime="0.00" timeLoss="10.35" rerouteNo="0" devices="tripinfo_down_74" vType="car@down_74" speedFactor="0.96" vaporized=""/>
    <tripinfo id="up_66" depart="42.50" departLane="53o_0" departPos="4.60" departSpeed="0.00" departDelay="6.50" arrival="197.50" arrivalLane="54i_1" arrivalPos="6.00" arrivalSpeed="3.53" duration="155.00" routeLength="1015.40" waitingTime="2.50" waitingCount="1" stopTime="0.00" timeLoss="9.83" rerouteNo="0" devices="tripinfo_up_66" vType="car@up_66" speedFactor="0.91" vaporized=""/>
    <tripinfo id="down_78" depart="44.00" departLane="54o_0" departPos="4.60" departSpeed="0.00" departDelay="4.00" arrival="199.00" arrivalLane="53i_1" arrivalPos="6.00" arrivalSpeed="6.89" duration="155.00" routeLength="1015.40" waitingTime="2.50" waitingCount="1" stopTime="0.00" timeLoss="9.48" rerouteNo="0" devices="tripinfo_down_78" vType="car@down_78" speedFactor="1.01" vaporized=""/>
    <tripinfo id="up_68" depart="46.00" departLane="53o_0" departPos="4.60" departSpeed="0.00" departDelay="9.50" arrival="201.00" arrivalLane="54i_1" arrivalPos="6.00" arrivalSpeed="2.28" duration="155.00" routeLength="1015.40" waitingTime="2.00" waitingCount="1" stopTime="0.00" timeLoss="9.82" rerouteNo="0" devices="tripinfo_up_68" vType="car@up_68" speedFactor="1.04" vaporized=""/>
    <tripinfo id="down_95" depart="47.50" departLane="54o_0" departPos="4.60" departSpeed="0.00" departDelay="1.00" arrival="202.00" arrivalLane="53i_1" arrivalPos="6.00" arrivalSpeed="3.36" duration="154.50" routeLength="1015.40" waitingTime="2.00" waitingCount="1" stopTime="0.00" timeLoss="9.44" rerouteNo="0" devices="tripinfo_down_95" vType="car@down_95" speedFactor="1.06" vaporized=""/>
    <tripinfo id="up_70" depart="49.00" departLane="53o_0" departPos="4.60" departSpeed="0.00" departDelay="11.00" arrival="204.00" arrivalLane="54i_1" arrivalPos="6.00" arrivalSpeed="4.07" duration="155.00" routeLength="1015.40" waitingTime="2.50" waitingCount="1" stopTime="0.00" timeLoss="9.94" rerouteNo="0" devices="tripinfo_up_70" vType="car@up_70" speedFactor="1.02" vaporized=""/>
    <tripinfo id="down_97" depart="50.50" departLane="54o_0" departPos="4.60" departSpeed="0.00" departDelay="3.00" arrival="205.50" arrivalLane="53i_1" arrivalPos="6.00" arrivalSpeed="3.43" duration="155.00" routeLength="1015.40" waitingTime="2.50" waitingCount="1" stopTime="0.00" timeLoss="9.86" rerouteNo="0" devices="tripinfo_down_97" vType="car@down_97" speedFactor="0.91" vaporized=""/>
    <tripinfo id="up_73" depart="52.50" departLane="53o_0" departPos="4.60" departSpeed="0.00" departDelay="14.00" arrival="207.00" arrivalLane="54i_1" arrivalPos="6.00" arrivalSpeed="4.12" duration="154.50" routeLength="1015.40" waitingTime="2.00" waitingCount="1" stopTime="0.00" timeLoss="9.37" rerouteNo="0" devices="tripinfo_up_73" vType="car@up_73" speedFactor="1.06" vaporized=""/>
    <tripinfo id="down_105" depart="53.50" departLane="54o_0" departPos="4.60" departSpeed="0.00" departDelay="0.50" arrival="208.50" arrivalLane="53i_1" arrivalPos="6.00" arrivalSpeed="2.86" duration="155.00" routeLength="1015.40" waitingTime="2.50" waitingCount="1" stopTime="0.00" timeLoss="9.86" rerouteNo="0" devices="tripinfo_down_105" vType="car@down_105" speedFactor="1.07" vaporized=""/>
    <tripinfo id="up_81" depart="55.50" departLane="53o_0" departPos="4.60" departSpeed="0.00" departDelay="14.50" arrival="210.50" arrivalLane="54i_1" arrivalPos="6.00" arrivalSpeed="3.27" duration="155.00" routeLength="1015.40" waitingTime="2.00" waitingCount="1" stopTime="0.00" timeLoss="9.85" rerouteNo="0" devices="tripinfo_up_81" vType="car@up_81" speedFactor="1.00" vaporized=""/>
    <tripinfo id="up_88" depart="58.50" departLane="53o_0" departPos="4.60" departSpeed="0.00" departDelay="15.00" arrival="213.50" arrivalLane="54i_1" arrivalPos="6.00" arrivalSpeed="4.26" duration="155.00" routeLength="1015.40" waitingTime="2.00" waitingCount="1" stopTime="0.00" timeLoss="9.89" rerouteNo="0" devices="tripinfo_up_88" vType="car@up_88" speedFactor="1.01" vaporized=""/>
    <tripinfo id="down_112" depart="60.00" departLane="54o_0" departPos="4.60" departSpeed="0.00" departDelay="3.50" arrival="216.00" arrivalLane="53i_1" arrivalPos="6.00" arrivalSpeed="2.34" duration="156.00" routeLength="1015.40" waitingTime="3.00" waitingCount="1" stopTime="0.00" timeLoss="10.83" rerouteNo="0" devices="tripinfo_down_112" vType="car@down_112" speedFactor="1.10" vaporized=""/>
    <tripinfo id="up_89" depart="61.50" departLane="53o_0" departPos="4.60" departSpeed="0.00" departDelay="17.50" arrival="217.00" arrivalLane="54i_1" arrivalPos="6.00" arrivalSpeed="3.06" duration="155.50" routeLength="1015.40" waitingTime="2.50" waitingCount="1" stopTime="0.00" timeLoss="10.29" rerouteNo="0" devices="tripinfo_up_89" vType="car@up_89" speedFactor="1.02" vaporized=""/>
    <tripinfo id="down_109" depart="57.00" departLane="54o_0" departPos="4.60" departSpeed="0.00" departDelay="1.00" arrival="219.00" arrivalLane="53i_1" arrivalPos="6.00" arrivalSpeed="2.40" duration="162.00" routeLength="1015.40" waitingTime="3.00" waitingCount="2" stopTime="0.00" timeLoss="16.85" rerouteNo="0" devices="tripinfo_down_109" vType="car@down_109" speedFactor="0.96" vaporized=""/>
    <tripinfo id="up_91" depart="64.50" departLane="53o_0" departPos="4.60" departSpeed="0.00" departDelay="19.00" arrival="220.00" arrivalLane="54i_1" arrivalPos="6.00" arrivalSpeed="3.13" duration="155.50" routeLength="1015.40" waitingTime="2.50" waitingCount="1" stopTime="0.00" timeLoss="10.29" rerouteNo="0" devices="tripinfo_up_91" vType="car@up_91" speedFactor="0.89" vaporized=""/>
    <tripinfo id="up_104" depart="68.00" departLane="53o_0" departPos="4.60" departSpeed="0.00" departDelay="15.00" arrival="223.00" arrivalLane="54i_1" arrivalPos="6.00" arrivalSpeed="3.99" duration="155.00" routeLength="1015.40" waitingTime="2.50" waitingCount="1" stopTime="0.00" timeLoss="9.92" rerouteNo="0" devices="tripinfo_up_104" vType="car@up_104" speedFactor="0.89" vaporized=""/>
    <tripinfo id="down_114" depart="63.50" departLane="54o_0" departPos="4.60" departSpeed="0.00" departDelay="6.50" arrival="224.50" arrivalLane="53i_1" arrivalPos="6.00" arrivalSpeed="3.59" duration="161.00" routeLength="1015.40" waitingTime="3.00" waitingCount="1" stopTime="0.00" timeLoss="15.74" rerouteNo="0" devices="tripinfo_down_114" vType="car@down_114" speedFactor="1.10" vaporized=""/>
    <tripinfo id="up_111" depart="71.00" departLane="53o_0" departPos="4.60" departSpeed="0.00" departDelay="14.50" arrival="226.50" arrivalLane="54i_1" arrivalPos="6.00" arrivalSpeed="2.74" duration="155.50" routeLength="1015.40" waitingTime="2.50" waitingCount="1" stopTime="0.00" timeLoss="10.33" rerouteNo="0" devices="tripinfo_up_111" vType="car@up_111" speedFactor="0.87" vaporized=""/>
    <tripinfo id="down_121" depart="70.50" departLane="54o_0" departPos="4.60" departSpeed="0.00" departDelay="10.50" arrival="227.00" arrivalLane="53i_1" arrivalPos="6.00" arrivalSpeed="2.45" duration="156.50" routeLength="1015.40" waitingTime="2.50" waitingCount="1" stopTime="0.00" timeLoss="11.36" rerouteNo="0" devices="tripinfo_down_121" vType="car@down_121" speedFactor="1.10" vaporized=""/>
    <tripinfo id="up_118" depart="74.50" departLane="53o_0" departPos="4.60" departSpeed="0.00" departDelay="16.00" arrival="229.50" arrivalLane="54i_1" arrivalPos="6.00" arrivalSpeed="3.48" duration="155.00" routeLength="1015.40" waitingTime="2.50" waitingCount="1" stopTime="0.00" timeLoss="9.93" rerouteNo="0" devices="tripinfo_up_118" vType="car@up_118" speedFactor="0.99" vaporized=""/>
    <tripinfo id="down_125" depart="74.00" departLane="54o_0" departPos="4.60" departSpeed="0.00" departDelay="13.00" arrival="229.50" arrivalLane="53i_1" arrivalPos="6.00" arrivalSpeed="2.52" duration="155.50" routeLength="1015.40" waitingTime="2.00" waitingCount="1" stopTime="0.00" timeLoss="10.37" rerouteNo="0" devices="tripinfo_down_125" vType="car@down_125" speedFactor="1.15" vaporized=""/>
    <tripinfo id="down_127" depart="77.00" departLane="54o_0" departPos="4.60" departSpeed="0.00" departDelay="14.00" arrival="232.00" arrivalLane="53i_1" arrivalPos="6.00" arrivalSpeed="3.27" duration="155.00" routeLength="1015.40" waitingTime="2.50" waitingCount="1" stopTime="0.00" timeLoss="9.89" rerouteNo="0" devices="tripinfo_down_127" vType="car@down_127" speedFactor="0.82" vaporized=""/>
    <tripinfo id="up_119" depart="78.00" departLane="53o_0" departPos="4.60" departSpeed="0.00" departDelay="19.00" arrival="232.50" arrivalLane="54i_1" arrivalPos="6.00" arrivalSpeed="2.58" duration="154.50" routeLength="1015.40" waitingTime="2.00" waitingCount="1" stopTime="0.00" timeLoss="9.29" rerouteNo="0" devices="tripinfo_up_119" vType="car@up_119" speedFactor="1.07" vaporized=""/>
    <tripinfo id="down_116" depart="67.00" departLane="54o_0" departPos="4.60" departSpeed="0.00" departDelay="9.00" arrival="234.50" arrivalLane="53i_1" arrivalPos="6.00" arrivalSpeed="2.92" duration="167.50" routeLength="1015.40" waitingTime="4.00" waitingCount="4" stopTime="0.00" timeLoss="22.29" rerouteNo="0" devices="tripinfo_down_116" vType="car@down_116" speedFactor="1.18" vaporized=""/>
    <tripinfo id="up_123" depart="81.00" departLane="53o_0" departPos="4.60" departSpeed="0.00" departDelay="20.50" arrival="235.50" arrivalLane="54i_1" arrivalPos="6.00" arrivalSpeed="4.09" duration="154.50" routeLength="1015.40" waitingTime="2.00" waitingCount="1" stopTime="0.00" timeLoss="9.45" rerouteNo="0" devices="tripinfo_up_123" vType="car@up_123" speedFactor="1.02" vaporized=""/>
    <tripinfo id="down_128" depart="80.50" departLane="54o_0" departPos="4.60" departSpeed="0.00" departDelay="17.00" arrival="237.00" arrivalLane="53i_1" arrivalPos="6.00" arrivalSpeed="2.30" duration="156.50" routeLength="1015.40" waitingTime="2.50" waitingCount="1" stopTime="0.00" timeLoss="11.33" rerouteNo="0" devices="tripinfo_down_128" vType="car@down_128" speedFactor="1.12" vaporized=""/>
    <tripinfo id="up_126" depart="84.00" departLane="53o_0" departPos="4.60" departSpeed="0.00" departDelay="21.50" arrival="239.00" arrivalLane="54i_1" arrivalPos="6.00" arrivalSpeed="3.36" duration="155.00" routeLength="1015.40" waitingTime="2.50" waitingCount="1" stopTime="0.00" timeLoss="9.86" rerouteNo="0" devices="tripinfo_up_126" vType="car@up_126" speedFactor="1.03" vaporized=""/>
    <tripinfo id="down_139" depart="83.50" departLane="54o_0" departPos="4.60" departSpeed="0.00" departDelay="12.50" arrival="239.50" arrivalLane="53i_1" arrivalPos="6.00" arrivalSpeed="2.61" duration="156.00" routeLength="1015.40" waitingTime="2.50" waitingCount="1" stopTime="0.00" timeLoss="10.89" rerouteNo="0" devices="tripinfo_down_139" vType="car@down_139" speedFactor="0.95" vaporized=""/>
    <tripinfo id="up_129" depart="87.00" departLane="53o_0" departPos="4.60" departSpeed="0.00" departDelay="22.50" arrival="242.00" arrivalLane="54i_1" arrivalPos="6.00" arrivalSpeed="3.90" duration="155.00" routeLength="1015.40" waitingTime="2.50" waitingCount="1" stopTime="0.00" timeLoss="9.95" rerouteNo="0" devices="tripinfo_up_129" vType="car@up_129" speedFactor="1.01" vaporized=""/>
    <tripinfo id="down_142" depart="87.00" departLane="54o_0" departPos="4.60" departSpeed="0.00" departDelay="15.50" arrival="243.00" arrivalLane="53i_1" arrivalPos="6.00" arrivalSpeed="2.25" duration="156.00" routeLength="1015.40" waitingTime="2.50" waitingCount="1" stopTime="0.00" timeLoss="10.81" rerouteNo="0" devices="tripinfo_down_142" vType="car@down_142" speedFactor="0.94" vaporized=""/>
    <tripinfo id="up_130" depart="90.50" departLane="53o_0" departPos="4.60" departSpeed="0.00" departDelay="25.50" arrival="245.50" arrivalLane="54i_1" arrivalPos="6.00" arrivalSpeed="3.44" duration="155.00" routeLength="1015.40" waitingTime="2.50" waitingCount="1" stopTime="0.00" timeLoss="9.96" rerouteNo="0" devices="tripinfo_up_130" vType="car@up_130" speedFactor="1.03" vaporized=""/>
    <tripinfo id="down_154" depart="90.50" departLane="54o_0" departPos="4.60" departSpeed="0.00" departDelay="14.00" arrival="245.50" arrivalLane="53i_1" arrivalPos="6.00" arrivalSpeed="2.88" duration="155.00" routeLength="1015.40" waitingTime="2.00" waitingCount="1" stopTime="0.00" timeLoss="9.95" rerouteNo="0" devices="tripinfo_down_154" vType="car@down_154" speedFactor="1.06" vaporized=""/>
    <tripinfo id="down_160" depart="93.50" departLane="54o_0" departPos="4.60" departSpeed="0.00" departDelay="14.50" arrival="249.00" arrivalLane="53i_1" arrivalPos="6.00" arrivalSpeed="2.43" duration="155.50" routeLength="1015.40" waitingTime="2.50" waitingCount="1" stopTime="0.00" timeLoss="10.35" rerouteNo="0" devices="tripinfo_down_160" vType="car@down_160" speedFactor="0.88" vaporized=""/>
    <tripinfo id="up_132" depart="93.50" departLane="53o_0" departPos="4.60" departSpeed="0.00" departDelay="28.00" arrival="249.50" arrivalLane="54i_1" arrivalPos="6.00" arrivalSpeed="2.86" duration="156.00" routeLength="1015.40" waitingTime="3.00" waitingCount="1" stopTime="0.00" timeLoss="10.95" rerouteNo="0" devices="tripinfo_up_132" vType="car@up_132" speedFactor="0.96" vaporized=""/>
    <tripinfo id="up_135" depart="97.00" departLane="53o_0" departPos="4.60" departSpeed="0.00" departDelay="28.00" arrival="252.00" arrivalLane="54i_1" arrivalPos="6.00" arrivalSpeed="3.48" duration="155.00" routeLength="1015.40" waitingTime="2.50" waitingCount="1" stopTime="0.00" timeLoss="9.95" rerouteNo="0" devices="tripinfo_up_135" vType="car@up_135" speedFactor="1.01" vaporized=""/>
    <tripinfo id="down_166" depart="96.50" departLane="54o_0" departPos="4.60" departSpeed="0.00" departDelay="15.50" arrival="252.00" arrivalLane="53i_1" arrivalPos="6.00" arrivalSpeed="2.87" duration="155.50" routeLength="1015.40" waitingTime="2.50" waitingCount="1" stopTime="0.00" timeLoss="10.45" rerouteNo="0" devices="tripinfo_down_166" vType="car@down_166" speedFactor="1.00" vaporized=""/>
    <tripinfo id="up_137" depart="100.50" departLane="53o_0" departPos="4.60" departSpeed="0.00" departDelay="31.00" arrival="255.50" arrivalLane="54i_1" arrivalPos="6.00" arrivalSpeed="2.55" duration="155.00" routeLength="1015.40" waitingTime="2.00" waitingCount="1" stopTime="0.00" timeLoss="9.88" rerouteNo="0" devices="tripinfo_up_137" vType="car@up_137" speedFactor="1.02" vaporized=""/>
    <tripinfo id="down_173" depart="100.00" departLane="54o_0" departPos="4.60" departSpeed="0.00" departDelay="17.00" arrival="255.50" arrivalLane="53i_1" arrivalPos="6.00" arrivalSpeed="2.25" duration="155.50" routeLength="1015.40" waitingTime="2.50" waitingCount="1" stopTime="0.00" timeLoss="10.31" rerouteNo="0" devices="tripinfo_down_173" vType="car@down_173" speedFactor="1.14" vaporized=""/>
    <tripinfo id="down_176" depart="103.50" departLane="54o_0" departPos="4.60" departSpeed="0.00" departDelay="19.00" arrival="258.00" arrivalLane="53i_1" arrivalPos="6.00" arrivalSpeed="2.89" duration="154.50" routeLength="1015.40" waitingTime="2.00" waitingCount="1" stopTime="0.00" timeLoss="9.32" rerouteNo="0" devices="tripinfo_down_176" vType="car@down_176" speedFactor="1.09" vaporized=""/>
    <tripinfo id="up_141" depart="103.50" departLane="53o_0" departPos="4.60" departSpeed="0.00" departDelay="32.00" arrival="259.00" arrivalLane="54i_1" arrivalPos="6.00" arrivalSpeed="2.79" duration="155.50" routeLength="1015.40" waitingTime="2.50" waitingCount="1" stopTime="0.00" timeLoss="10.42" rerouteNo="0" devices="tripinfo_up_141" vType="car@up_141" speedFactor="1.16" vaporized=""/>
    <tripinfo id="down_182" depart="106.50" departLane="54o_0" departPos="4.60" departSpeed="0.00" departDelay="17.50" arrival="261.00" arrivalLane="53i_1" arrivalPos="6.00" arrivalSpeed="3.22" duration="154.50" routeLength="1015.40" waitingTime="2.00" waitingCount="1" stopTime="0.00" timeLoss="9.40" rerouteNo="0" devices="tripinfo_down_182" vType="car@down_182" speedFactor="1.03" vaporized=""/>
    <tripinfo id="up_144" depart="106.50" departLane="53o_0" departPos="4.60" departSpeed="0.00" departDelay="34.50" arrival="262.50" arrivalLane="54i_1" arrivalPos="6.00" arrivalSpeed="2.49" duration="156.00" routeLength="1015.40" waitingTime="2.50" waitingCount="1" stopTime="0.00" timeLoss="10.87" rerouteNo="0" devices="tripinfo_up_144" vType="car@up_144" speedFactor="0.73" vaporized=""/>
    <tripinfo id="down_183" depart="109.50" departLane="54o_0" departPos="4.60" departSpeed="0.00" departDelay="19.50" arrival="264.50" arrivalLane="53i_1" arrivalPos="6.00" arrivalSpeed="3.32" duration="155.00" routeLength="1015.40" waitingTime="2.00" waitingCount="1" stopTime="0.00" timeLoss="9.89" rerouteNo="0" devices="tripinfo_down_183" vType="car@down_183" speedFactor="1.08" vaporized=""/>
    <tripinfo id="up_146" depart="110.00" departLane="53o_0" departPos="4.60" departSpeed="0.00" departDelay="37.50" arrival="265.50" arrivalLane="54i_1" arrivalPos="6.00" arrivalSpeed="2.59" duration="155.50" routeLength="1015.40" waitingTime="2.50" waitingCount="1" stopTime="0.00" timeLoss="10.39" rerouteNo="0" devices="tripinfo_up_146" vType="car@up_146" speedFactor="0.89" vaporized=""/>
    <tripinfo id="down_186" depart="112.50" departLane="54o_0" departPos="4.60" departSpeed="0.00" departDelay="22.00" arrival="267.50" arrivalLane="53i_1" arrivalPos="6.00" arrivalSpeed="2.82" duration="155.00" routeLength="1015.40" waitingTime="2.50" waitingCount="1" stopTime="0.00" timeLoss="9.83" rerouteNo="0" devices="tripinfo_down_186" vType="car@down_186" speedFactor="1.08" vaporized=""/>
    <tripinfo id="up_147" depart="113.50" departLane="53o_0" departPos="4.60" departSpeed="0.00" departDelay="40.50" arrival="268.50" arrivalLane="54i_1" arrivalPos="6.00" arrivalSpeed="2.51" duration="155.00" routeLength="1015.40" waitingTime="2.00" waitingCount="1" stopTime="0.00" timeLoss="9.87" rerouteNo="0" devices="tripinfo_up_147" vType="car@up_147" speedFactor="1.00" vaporized=""/>
    <tripinfo id="down_189" depart="116.00" departLane="54o_0" departPos="4.60" departSpeed="0.00" departDelay="25.00" arrival="271.00" arrivalLane="53i_1" arrivalPos="6.00" arrivalSpeed="2.73" duration="155.00" routeLength="1015.40" waitingTime="2.00" waitingCount="1" stopTime="0.00" timeLoss="9.92" rerouteNo="0" devices="tripinfo_down_189" vType="car@down_189" speedFactor="0.97" vaporized=""/>