<?xml version="1.0" encoding="UTF-8"?>

<!-- generated on 2021-05-27 22:48:20 by Eclipse SUMO GUI Version 1.9.2
<configuration xmlns:xsi="http://www.w3.org/2001/XMLSchema-instance" xsi:noNamespaceSchemaLocation="http://sumo.dlr.de/xsd/sumoConfiguration.xsd">

    <input>
        <net-file value="data/cross.net.xml"/>
        <route-files value="data/cross.rou.xml"/>
        <additional-files value="data/cross.det.xml"/>
    </input>

    <output>
        <tripinfo-output value="tripinfo.xml"/>
    </output>

    <time>
        <begin value="0"/>
        <step-length value=".5"/>
    </time>

    <processing>
        <collision.action value="none"/>
        <collision.mingap-factor value="0"/>
        <time-to-teleport value="-1"/>
        <time-to-teleport.highways value="-1"/>
    </processing>

    <report>
        <verbose value="true"/>
        <no-step-log value="true"/>
    </report>

    <traci_server>
        <remote-port value="51967"/>
    </traci_server>

    <gui_only>
        <tracker-interval value="0.5"/>
    </gui_only>

</configuration>
-->

<tripinfos xmlns:xsi="http://www.w3.org/2001/XMLSchema-instance" xsi:noNamespaceSchemaLocation="http://sumo.dlr.de/xsd/tripinfo_file.xsd">
    <tripinfo id="up_2" depart="1.50" departLane="53o_0" departPos="4.60" departSpeed="0.00" departDelay="0.00" arrival="156.00" arrivalLane="54i_1" arrivalPos="6.00" arrivalSpeed="3.38" duration="154.50" routeLength="1015.40" waitingTime="0.00" waitingCount="0" stopTime="0.00" timeLoss="9.38" rerouteNo="0" devices="tripinfo_up_2" vType="car@up_2" speedFactor="1.01" vaporized=""/>
    <tripinfo id="down_1" depart="1.00" departLane="54o_0" departPos="4.60" departSpeed="0.00" departDelay="0.00" arrival="157.50" arrivalLane="53i_1" arrivalPos="6.00" arrivalSpeed="2.25" duration="156.50" routeLength="1015.40" waitingTime="0.00" waitingCount="0" stopTime="0.00" timeLoss="11.31" rerouteNo="0" devices="tripinfo_down_1" vType="car@down_1" speedFactor="0.94" vaporized=""/>
    <tripinfo id="down_11" depart="4.50" departLane="54o_0" departPos="4.60" departSpeed="0.00" departDelay="1.00" arrival="160.00" arrivalLane="53i_1" arrivalPos="6.00" arrivalSpeed="3.08" duration="155.50" routeLength="1015.40" waitingTime="2.50" waitingCount="1" stopTime="0.00" timeLoss="10.36" rerouteNo="0" devices="tripinfo_down_11" vType="car@down_11" speedFactor="1.03" vaporized=""/>
    <tripinfo id="up_9" depart="5.00" departLane="53o_0" departPos="4.60" departSpeed="0.00" departDelay="2.00" arrival="161.50" arrivalLane="54i_1" arrivalPos="6.00" arrivalSpeed="3.57" duration="156.50" routeLength="1015.40" waitingTime="2.50" waitingCount="1" stopTime="0.00" timeLoss="11.39" rerouteNo="0" devices="tripinfo_up_9" vType="car@up_9" speedFactor="0.86" vaporized=""/>
    <tripinfo id="down_12" depart="8.00" departLane="54o_0" departPos="4.60" departSpeed="0.00" departDelay="2.50" arrival="165.50" arrivalLane="53i_1" arrivalPos="6.00" arrivalSpeed="3.76" duration="157.50" routeLength="1015.40" waitingTime="2.50" waitingCount="1" stopTime="0.00" timeLoss="12.31" rerouteNo="0" devices="tripinfo_down_12" vType="car@down_12" speedFactor="1.05" vaporized=""/>
    <tripinfo id="up_24" depart="12.50" departLane="53o_0" departPos="4.60" departSpeed="0.00" departDelay="0.00" arrival="167.00" arrivalLane="54i_1" arrivalPos="6.00" arrivalSpeed="2.38" duration="154.50" routeLength="1015.40" waitingTime="0.00" waitingCount="0" stopTime="0.00" timeLoss="9.34" rerouteNo="0" devices="tripinfo_up_24" vType="car@up_24" speedFactor="0.83" vaporized=""/>
    <tripinfo id="down_14" depart="11.50" departLane="54o_0" departPos="4.60" departSpeed="0.00" departDelay="5.50" arrival="168.00" arrivalLane="53i_1" arrivalPos="6.00" arrivalSpeed="2.59" duration="156.50" routeLength="1015.40" waitingTime="2.50" waitingCount="1" stopTime="0.00" timeLoss="11.39" rerouteNo="0" devices="tripinfo_down_14" vType="car@down_14" speedFactor="0.99" vaporized=""/>
    <tripinfo id="up_31" depart="16.00" departLane="53o_0" departPos="4.60" departSpeed="0.00" departDelay="0.00" arrival="169.50" arrivalLane="54i_1" arrivalPos="6.00" arrivalSpeed="2.88" duration="153.50" routeLength="1015.40" waitingTime="0.00" waitingCount="0" stopTime="0.00" timeLoss="8.45" rerouteNo="0" devices="tripinfo_up_31" vType="car@up_31" speedFactor="1.15" vaporized=""/>
    <tripinfo id="down_4" depart="2.00" departLane="54o_0" departPos="4.60" departSpeed="0.00" departDelay="0.00" arrival="171.50" arrivalLane="53i_1" arrivalPos="6.00" arrivalSpeed="2.63" duration="169.50" routeLength="1015.40" waitingTime="5.50" waitingCount="6" stopTime="0.00" timeLoss="24.40" rerouteNo="0" devices="tripinfo_down_4" vType="car@down_4" speedFactor="1.03" vaporized=""/>
    <tripinfo id="up_6" depart="2.50" departLane="53o_0" departPos="4.60" departSpeed="0.00" departDelay="0.00" arrival="172.00" arrivalLane="54i_1" arrivalPos="6.00" arrivalSpeed="2.27" duration="169.50" routeLength="1015.40" waitingTime="3.00" waitingCount="3" stopTime="0.00" timeLoss="24.32" rerouteNo="0" devices="tripinfo_up_6" vType="car@up_6" speedFactor="1.05" vaporized=""/>
    <tripinfo id="down_17" depart="14.50" departLane="54o_0" departPos="4.60" departSpeed="0.00" departDelay="7.00" arrival="175.50" arrivalLane="53i_1" arrivalPos="6.00" arrivalSpeed="4.06" duration="161.00" routeLength="1015.40" waitingTime="2.50" waitingCount="1" stopTime="0.00" timeLoss="15.86" rerouteNo="0" devices="tripinfo_down_17" vType="car@down_17" speedFactor="0.94" vaporized=""/>
    <tripinfo id="up_39" depart="22.00" departLane="53o_0" departPos="4.60" departSpeed="0.00" departDelay="0.00" arrival="176.00" arrivalLane="54i_1" arrivalPos="6.00" arrivalSpeed="2.90" duration="154.00" routeLength="1015.40" waitingTime="0.50" waitingCount="1" stopTime="0.00" timeLoss="8.95" rerouteNo="0" devices="tripinfo_up_39" vType="car@up_39" speedFactor="0.90" vaporized=""/>
    <tripinfo id="down_21" depart="18.00" departLane="54o_0" departPos="4.60" departSpeed="0.00" departDelay="7.00" arrival="178.00" arrivalLane="53i_1" arrivalPos="6.00" arrivalSpeed="2.70" duration="160.00" routeLength="1015.40" waitingTime="2.50" waitingCount="1" stopTime="0.00" timeLoss="14.91" rerouteNo="0" devices="tripinfo_down_21" vType="car@down_21" speedFactor="1.01" vaporized=""/>
    <tripinfo id="up_42" depart="23.50" departLane="53o_0" departPos="4.60" departSpeed="0.00" departDelay="0.00" arrival="180.00" arrivalLane="54i_1" arrivalPos="6.00" arrivalSpeed="2.59" duration="156.50" routeLength="1015.40" waitingTime="2.50" waitingCount="1" stopTime="0.00" timeLoss="11.39" rerouteNo="0" devices="tripinfo_up_42" vType="car@up_42" speedFactor="1.09" vaporized=""/>
    <tripinfo id="up_35" depart="19.50" departLane="53o_0" departPos="4.60" departSpeed="0.00" departDelay="0.00" arrival="182.50" arrivalLane="54i_1" arrivalPos="6.00" arrivalSpeed="2.55" duration="163.00" routeLength="1015.40" waitingTime="0.00" waitingCount="0" stopTime="0.00" timeLoss="17.88" rerouteNo="0" devices="tripinfo_up_35" vType="car@up_35" speedFactor="1.02" vaporized=""/>
    <tripinfo id="down_36" depart="21.50" departLane="54o_0" departPos="4.60" departSpeed="0.00" departDelay="1.00" arrival="194.00" arrivalLane="53i_1" arrivalPos="6.00" arrivalSpeed="2.24" duration="172.50" routeLength="1015.40" waitingTime="8.00" waitingCount="5" stopTime="0.00" timeLoss="27.31" rerouteNo="0" devices="tripinfo_down_36" vType="car@down_36" speedFactor="0.97" vaporized=""/>
    <tripinfo id="down_46" depart="26.00" departLane="54o_0" departPos="4.60" departSpeed="0.00" departDelay="0.00" arrival="196.50" arrivalLane="53i_1" arrivalPos="6.00" arrivalSpeed="2.38" duration="170.50" routeLength="1015.40" waitingTime="1.50" waitingCount="2" stopTime="0.00" timeLoss="25.20" rerouteNo="0" devices="tripinfo_down_46" vType="car@down_46" speedFactor="1.00" vaporized=""/>
    <tripinfo id="up_44" depart="30.00" departLane="53o_0" departPos="4.60" departSpeed="0.00" departDelay="4.50" arrival="199.50" arrivalLane="54i_1" arrivalPos="6.00" arrivalSpeed="2.75" duration="169.50" routeLength="1015.40" waitingTime="3.00" waitingCount="2" stopTime="0.00" timeLoss="24.42" rerouteNo="0" devices="tripinfo_up_44" vType="car@up_44" speedFactor="1.04" vaporized=""/>
    <tripinfo id="up_43" depart="26.50" departLane="53o_0" departPos="4.60" departSpeed="0.00" departDelay="1.50" arrival="202.00" arrivalLane="54i_1" arrivalPos="6.00" arrivalSpeed="2.63" duration="175.50" routeLength="1015.40" waitingTime="8.00" waitingCount="7" stopTime="0.00" timeLoss="30.39" rerouteNo="0" devices="tripinfo_up_43" vType="car@up_43" speedFactor="1.04" vaporized=""/>
    <tripinfo id="down_52" depart="31.00" departLane="54o_0" departPos="4.60" departSpeed="0.00" departDelay="3.50" arrival="203.00" arrivalLane="53i_1" arrivalPos="6.00" arrivalSpeed="2.43" duration="172.00" routeLength="1015.40" waitingTime="4.00" waitingCount="5" stopTime="0.00" timeLoss="26.85" rerouteNo="0" devices="tripinfo_down_52" vType="car@down_52" speedFactor="1.02" vaporized=""/>
    <tripinfo id="up_58" depart="33.50" departLane="53o_0" departPos="4.60" departSpeed="0.00" departDelay="3.50" arrival="204.00" arrivalLane="54i_1" arrivalPos="6.00" arrivalSpeed="3.96" duration="170.50" routeLength="1015.40" waitingTime="5.00" waitingCount="5" stopTime="0.00" timeLoss="25.38" rerouteNo="0" devices="tripinfo_up_58" vType="car@up_58" speedFactor="1.02" vaporized=""/>
    <tripinfo id="down_71" depart="38.00" departLane="54o_0" departPos="4.60" departSpeed="0.00" departDelay="0.00" arrival="205.50" arrivalLane="53i_1" arrivalPos="6.00" arrivalSpeed="3.12" duration="167.50" routeLength="1015.40" waitingTime="4.50" waitingCount="6" stopTime="0.00" timeLoss="22.39" rerouteNo="0" devices="tripinfo_down_71" vType="car@down_71" speedFactor="0.97" vaporized=""/>
    <tripinfo id="up_70" depart="49.00" departLane="53o_0" departPos="4.60" departSpeed="0.00" departDelay="11.00" arrival="206.50" arrivalLane="54i_1" arrivalPos="6.00" arrivalSpeed="2.52" duration="157.50" routeLength="1015.40" waitingTime="2.50" waitingCount="1" stopTime="0.00" timeLoss="12.37" rerouteNo="0" devices="tripinfo_up_70" vType="car@up_70" speedFactor="1.02" vaporized=""/>
    <tripinfo id="up_73" depart="52.50" departLane="53o_0" departPos="4.60" departSpeed="0.00" departDelay="14.00" arrival="209.00" arrivalLane="54i_1" arrivalPos="6.00" arrivalSpeed="2.69" duration="156.50" routeLength="1015.40" waitingTime="2.00" waitingCount="1" stopTime="0.00" timeLoss="11.41" rerouteNo="0" devices="tripinfo_up_73" vType="car@up_73" speedFactor="1.06" vaporized=""/>
    <tripinfo id="down_74" depart="41.00" departLane="54o_0" departPos="4.60" departSpeed="0.00" departDelay="2.50" arrival="210.50" arrivalLane="53i_1" arrivalPos="6.00" arrivalSpeed="2.67" duration="169.50" routeLength="1015.40" waitingTime="4.00" waitingCount="4" stopTime="0.00" timeLoss="24.40" rerouteNo="0" devices="tripinfo_down_74" vType="car@down_74" speedFactor="0.96" vaporized=""/>
    <tripinfo id="up_59" depart="36.50" departLane="53o_0" departPos="4.60" departSpeed="0.00" departDelay="5.50" arrival="211.50" arrivalLane="54i_1" arrivalPos="6.00" arrivalSpeed="2.55" duration="175.00" routeLength="1015.40" waitingTime="4.00" waitingCount="4" stopTime="0.00" timeLoss="29.88" rerouteNo="0" devices="tripinfo_up_59" vType="car@up_59" speedFactor="0.97" vaporized=""/>
    <tripinfo id="up_81" depart="55.50" departLane="53o_0" departPos="4.60" departSpeed="0.00" departDelay="14.50" arrival="213.50" arrivalLane="54i_1" arrivalPos="6.00" arrivalSpeed="4.49" duration="158.00" routeLength="1015.40" waitingTime="2.00" waitingCount="1" stopTime="0.00" timeLoss="12.95" rerouteNo="0" devices="tripinfo_up_81" vType="car@up_81" speedFactor="1.00" vaporized=""/>
    <tripinfo id="up_65" depart="39.50" departLane="53o_0" departPos="4.60" departSpeed="0.00" departDelay="4.00" arrival="217.00" arrivalLane="54i_1" arrivalPos="6.00" arrivalSpeed="3.46" duration="177.50" routeLength="1015.40" waitingTime="7.00" waitingCount="6" stopTime="0.00" timeLoss="32.39" rerouteNo="0" devices="tripinfo_up_65" vType="car@up_65" speedFactor="0.88" vaporized=""/>
    <tripinfo id="down_95" depart="47.50" departLane="54o_0" departPos="4.60" departSpeed="0.00" departDelay="1.00" arrival="221.00" arrivalLane="53i_1" arrivalPos="6.00" arrivalSpeed="4.17" duration="173.50" routeLength="1015.40" waitingTime="6.00" waitingCount="5" stopTime="0.00" timeLoss="28.36" rerouteNo="0" devices="tripinfo_down_95" vType="car@down_95" speedFactor="1.06" vaporized=""/>
    <tripinfo id="up_88" depart="58.50" departLane="53o_0" departPos="4.60" departSpeed="0.00" departDelay="15.00" arrival="223.00" arrivalLane="54i_1" arrivalPos="6.00" arrivalSpeed="3.32" duration="164.50" routeLength="1015.40" waitingTime="2.00" waitingCount="1" stopTime="0.00" timeLoss="19.35" rerouteNo="0" devices="tripinfo_up_88" vType="car@up_88" speedFactor="1.01" vaporized=""/>
    <tripinfo id="down_50" depart="27.50" departLane="54o_0" departPos="4.60" departSpeed="0.00" departDelay="0.50" arrival="223.50" arrivalLane="53i_1" arrivalPos="6.00" arrivalSpeed="2.68" duration="196.00" routeLength="1015.40" waitingTime="14.50" waitingCount="18" stopTime="0.00" timeLoss="50.78" rerouteNo="0" devices="tripinfo_down_50" vType="car@down_50" speedFactor="0.85" vaporized=""/>
    <tripinfo id="up_104" depart="68.00" departLane="53o_0" departPos="4.60" departSpeed="0.00" departDelay="15.00" arrival="225.50" arrivalLane="54i_1" arrivalPos="6.00" arrivalSpeed="3.74" duration="157.50" routeLength="1015.40" waitingTime="2.50" waitingCount="1" stopTime="0.00" timeLoss="12.27" rerouteNo="0" devices="tripinfo_up_104" vType="car@up_104" speedFactor="0.89" vaporized=""/>
    <tripinfo id="up_66" depart="42.50" departLane="53o_0" departPos="4.60" departSpeed="0.00" departDelay="6.50" arrival="228.00" arrivalLane="54i_1" arrivalPos="6.00" arrivalSpeed="2.42" duration="185.50" routeLength="1015.40" waitingTime="8.00" waitingCount="11" stopTime="0.00" timeLoss="40.35" rerouteNo="0" devices="tripinfo_up_66" vType="car@up_66" speedFactor="0.91" vaporized=""/>
    <tripinfo id="down_105" depart="53.50" departLane="54o_0" departPos="4.60" departSpeed="0.00" departDelay="0.50" arrival="228.50" arrivalLane="53i_1" arrivalPos="6.00" arrivalSpeed="2.76" duration="175.00" routeLength="1015.40" waitingTime="5.00" waitingCount="5" stopTime="0.00" timeLoss="29.84" rerouteNo="0" devices="tripinfo_down_105" vType="car@down_105" speedFactor="1.07" vaporized=""/>
    <tripinfo id="up_111" depart="71.00" departLane="53o_0" departPos="4.60" departSpeed="0.00" departDelay="14.50" arrival="230.50" arrivalLane="54i_1" arrivalPos="6.00" arrivalSpeed="2.38" duration="159.50" routeLength="1015.40" waitingTime="2.50" waitingCount="1" stopTime="0.00" timeLoss="14.34" rerouteNo="0" devices="tripinfo_up_111" vType="car@up_111" speedFactor="0.87" vaporized=""/>
    <tripinfo id="down_62" depart="34.00" departLane="54o_0" departPos="4.60" departSpeed="0.00" departDelay="1.50" arrival="231.00" arrivalLane="53i_1" arrivalPos="6.00" arrivalSpeed="3.64" duration="197.00" routeLength="1015.40" waitingTime="9.50" waitingCount="10" stopTime="0.00" timeLoss="51.77" rerouteNo="0" devices="tripinfo_down_62" vType="car@down_62" speedFactor="1.02" vaporized=""/>
    <tripinfo id="up_68" depart="46.00" departLane="53o_0" departPos="4.60" departSpeed="0.00" departDelay="9.50" arrival="233.00" arrivalLane="54i_1" arrivalPos="6.00" arrivalSpeed="2.58" duration="187.00" routeLength="1015.40" waitingTime="6.00" waitingCount="3" stopTime="0.00" timeLoss="41.79" rerouteNo="0" devices="tripinfo_up_68" vType="car@up_68" speedFactor="1.04" vaporized=""/>
    <tripinfo id="down_112" depart="60.00" departLane="54o_0" departPos="4.60" departSpeed="0.00" departDelay="3.50" arrival="233.50" arrivalLane="53i_1" arrivalPos="6.00" arrivalSpeed="2.50" duration="173.50" routeLength="1015.40" waitingTime="5.50" waitingCount="4" stopTime="0.00" timeLoss="28.36" rerouteNo="0" devices="tripinfo_down_112" vType="car@down_112" speedFactor="1.10" vaporized=""/>
    <tripinfo id="up_118" depart="74.50" departLane="53o_0" departPos="4.60" departSpeed="0.00" departDelay="16.00" arrival="235.50" arrivalLane="54i_1" arrivalPos="6.00" arrivalSpeed="3.35" duration="161.00" routeLength="1015.40" waitingTime="2.50" waitingCount="1" stopTime="0.00" timeLoss="15.86" rerouteNo="0" devices="tripinfo_up_118" vType="car@up_118" speedFactor="0.99" vaporized=""/>
    <tripinfo id="down_78" depart="44.00" departLane="54o_0" departPos="4.60" departSpeed="0.00" departDelay="4.00" arrival="237.50" arrivalLane="53i_1" arrivalPos="6.00" arrivalSpeed="3.67" duration="193.50" routeLength="1015.40" waitingTime="12.00" waitingCount="13" stopTime="0.00" timeLoss="48.27" rerouteNo="0" devices="tripinfo_down_78" vType="car@down_78" speedFactor="1.01" vaporized=""/>
    <tripinfo id="up_119" depart="78.00" departLane="53o_0" departPos="4.60" departSpeed="0.00" departDelay="19.00" arrival="244.50" arrivalLane="54i_1" arrivalPos="6.00" arrivalSpeed="4.03" duration="166.50" routeLength="1015.40" waitingTime="4.50" waitingCount="3" stopTime="0.00" timeLoss="21.31" rerouteNo="0" devices="tripinfo_up_119" vType="car@up_119" speedFactor="1.07" vaporized=""/>
    <tripinfo id="down_97" depart="50.50" departLane="54o_0" departPos="4.60" departSpeed="0.00" departDelay="3.00" arrival="246.00" arrivalLane="53i_1" arrivalPos="6.00" arrivalSpeed="2.47" duration="195.50" routeLength="1015.40" waitingTime="14.00" waitingCount="11" stopTime="0.00" timeLoss="50.36" rerouteNo="0" devices="tripinfo_down_97" vType="car@down_97" speedFactor="0.91" vaporized=""/>
    <tripinfo id="up_89" depart="61.50" departLane="53o_0" departPos="4.60" departSpeed="0.00" departDelay="17.50" arrival="247.00" arrivalLane="54i_1" arrivalPos="6.00" arrivalSpeed="2.63" duration="185.50" routeLength="1015.40" waitingTime="9.50" waitingCount="12" stopTime="0.00" timeLoss="40.39" rerouteNo="0" devices="tripinfo_up_89" vType="car@up_89" speedFactor="1.02" vaporized=""/>
    <tripinfo id="down_114" depart="63.50" departLane="54o_0" departPos="4.60" departSpeed="0.00" departDelay="6.50" arrival="250.50" arrivalLane="53i_1" arrivalPos="6.00" arrivalSpeed="3.83" duration="187.00" routeLength="1015.40" waitingTime="9.00" waitingCount="7" stopTime="0.00" timeLoss="41.80" rerouteNo="0" devices="tripinfo_down_114" vType="car@down_114" speedFactor="1.10" vaporized=""/>
    <tripinfo id="up_91" depart="64.50" departLane="53o_0" departPos="4.60" departSpeed="0.00" departDelay="19.00" arrival="251.50" arrivalLane="54i_1" arrivalPos="6.00" arrivalSpeed="3.56" duration="187.00" routeLength="1015.40" waitingTime="12.00" waitingCount="9" stopTime="0.00" timeLoss="41.77" rerouteNo="0" devices="tripinfo_up_91" vType="car@up_91" speedFactor="0.89" vaporized=""/>
    <tripinfo id="down_109" depart="57.00" departLane="54o_0" departPos="4.60" departSpeed="0.00" departDelay="1.00" arrival="256.50" arrivalLane="53i_1" arrivalPos="6.00" arrivalSpeed="2.86" duration="199.50" routeLength="1015.40" waitingTime="18.50" waitingCount="11" stopTime="0.00" timeLoss="54.45" rerouteNo="0" devices="tripinfo_down_109" vType="car@down_109" speedFactor="0.96" vaporized=""/>
    <tripinfo id="up_123" depart="81.00" departLane="53o_0" departPos="4.60" departSpeed="0.00" departDelay="20.50" arrival="260.50" arrivalLane="54i_1" arrivalPos="6.00" arrivalSpeed="3.98" duration="179.50" routeLength="1015.40" waitingTime="6.00" waitingCount="8" stopTime="0.00" timeLoss="34.16" rerouteNo="0" devices="tripinfo_up_123" vType="car@up_123" speedFactor="1.02" vaporized=""/>
    <tripinfo id="up_130" depart="90.50" departLane="53o_0" departPos="4.60" departSpeed="0.00" departDelay="25.50" arrival="265.00" arrivalLane="54i_1" arrivalPos="6.00" arrivalSpeed="2.70" duration="174.50" routeLength="1015.40" waitingTime="4.00" waitingCount="4" stopTime="0.00" timeLoss="29.41" rerouteNo="0" devices="tripinfo_up_130" vType="car@up_130" speedFactor="1.03" vaporized=""/>
    <tripinfo id="down_125" depart="74.00" departLane="54o_0" departPos="4.60" departSpeed="0.00" departDelay="13.00" arrival="266.00" arrivalLane="53i_1" arrivalPos="6.00" arrivalSpeed="2.34" duration="192.00" routeLength="1015.40" waitingTime="9.50" waitingCount="9" stopTime="0.00" timeLoss="46.84" rerouteNo="0" devices="tripinfo_down_125" vType="car@down_125" speedFactor="1.15" vaporized=""/>
    <tripinfo id="up_126" depart="84.00" departLane="53o_0" departPos="4.60" departSpeed="0.00" departDelay="21.50" arrival="268.00" arrivalLane="54i_1" arrivalPos="6.00" arrivalSpeed="3.33" duration="184.00" routeLength="1015.40" waitingTime="8.00" waitingCount="8" stopTime="0.00" timeLoss="38.85" rerouteNo="0" devices="tripinfo_up_126" vType="car@up_126" speedFactor="1.03" vaporized=""/>
    <tripinfo id="down_116" depart="67.00" departLane="54o_0" departPos="4.60" departSpeed="0.00" departDelay="9.00" arrival="268.50" arrivalLane="53i_1" arrivalPos="6.00" arrivalSpeed="2.49" duration="201.50" routeLength="1015.40" waitingTime="8.00" waitingCount="10" stopTime="0.00" timeLoss="56.37" rerouteNo="0" devices="tripinfo_down_116" vType="car@down_116" speedFactor="1.18" vaporized=""/>
    <tripinfo id="up_129" depart="87.00" departLane="53o_0" departPos="4.60" departSpeed="0.00" departDelay="22.50" arrival="274.00" arrivalLane="54i_1" arrivalPos="6.00" arrivalSpeed="2.33" duration="187.00" routeLength="1015.40" waitingTime="13.50" waitingCount="12" stopTime="0.00" timeLoss="41.83" rerouteNo="0" devices="tripinfo_up_129" vType="car@up_129" speedFactor="1.01" vaporized=""/>
    <tripinfo id="up_135" depart="97.00" departLane="53o_0" departPos="4.60" departSpeed="0.00" departDelay="28.00" arrival="276.00" arrivalLane="54i_1" arrivalPos="6.00" arrivalSpeed="4.31" duration="179.00" routeLength="1015.40" waitingTime="6.50" waitingCount="8" stopTime="0.00" timeLoss="33.94" rerouteNo="0" devices="tripinfo_up_135" vType="car@up_135" speedFactor="1.01" vaporized=""/>
    <tripinfo id="down_128" depart="80.50" departLane="54o_0" departPos="4.60" departSpeed="0.00" departDelay="17.00" arrival="283.00" arrivalLane="53i_1" arrivalPos="6.00" arrivalSpeed="2.34" duration="202.50" routeLength="1015.40" waitingTime="12.00" waitingCount="17" stopTime="0.00" timeLoss="57.32" rerouteNo="0" devices="tripinfo_down_128" vType="car@down_128" speedFactor="1.12" vaporized=""/>
    <tripinfo id="down_127" depart="77.00" departLane="54o_0" departPos="4.60" departSpeed="0.00" departDelay="14.00" arrival="285.00" arrivalLane="53i_1" arrivalPos="6.00" arrivalSpeed="4.37" duration="208.00" routeLength="1015.40" waitingTime="17.50" waitingCount="22" stopTime="0.00" timeLoss="62.91" rerouteNo="0" devices="tripinfo_down_127" vType="car@down_127" speedFactor="0.82" vaporized=""/>
    <tripinfo id="up_141" depart="103.50" departLane="53o_0" departPos="4.60" departSpeed="0.00" departDelay="32.00" arrival="286.00" arrivalLane="54i_1" arrivalPos="6.00" arrivalSpeed="3.39" duration="182.50" routeLength="1015.40" waitingTime="6.00" waitingCount="5" stopTime="0.00" timeLoss="37.22" rerouteNo="0" devices="tripinfo_up_141" vType="car@up_141" speedFactor="1.16" vaporized=""/>
    <tripinfo id="down_139" depart="83.50" departLane="54o_0" departPos="4.60" departSpeed="0.00" departDelay="12.50" arrival="291.50" arrivalLane="53i_1" arrivalPos="6.00" arrivalSpeed="3.74" duration="208.00" routeLength="1015.40" waitingTime="13.00" waitingCount="15" stopTime="0.00" timeLoss="62.76" rerouteNo="0" devices="tripinfo_down_139" vType="car@down_139" speedFactor="0.95" vaporized=""/>
    <tripinfo id="down_121" depart="70.50" departLane="54o_0" departPos="4.60" departSpeed="0.00" departDelay="10.50" arrival="294.00" arrivalLane="53i_1" arrivalPos="6.00" arrivalSpeed="2.83" duration="223.50" routeLength="1015.40" waitingTime="35.50" waitingCount="17" stopTime="0.00" timeLoss="78.44" rerouteNo="0" devices="tripinfo_down_121" vType="car@down_121" speedFactor="1.10" vaporized=""/>
    <tripinfo id="up_132" depart="93.50" departLane="53o_0" departPos="4.60" departSpeed="0.00" departDelay="28.00" arrival="295.00" arrivalLane="54i_1" arrivalPos="6.00" arrivalSpeed="2.30" duration="201.50" routeLength="1015.40" waitingTime="20.00" waitingCount="16" stopTime="0.00" timeLoss="56.32" rerouteNo="0" devices="tripinfo_up_132" vType="car@up_132" speedFactor="0.96" vaporized=""/>
    <tripinfo id="down_166" depart="96.50" departLane="54o_0" departPos="4.60" departSpeed="0.00" departDelay="15.50" arrival="296.50" arrivalLane="53i_1" arrivalPos="6.00" arrivalSpeed="2.61" duration="200.00" routeLength="1015.40" waitingTime="7.00" waitingCount="8" stopTime="0.00" timeLoss="54.89" rerouteNo="0" devices="tripinfo_down_166" vType="car@down_166" speedFactor="1.00" vaporized=""/>
    <tripinfo id="down_183" depart="109.50" departLane="54o_0" departPos="4.60" departSpeed="0.00" departDelay="19.50" arrival="299.00" arrivalLane="53i_1" arrivalPos="6.00" arrivalSpeed="2.69" duration="189.50" routeLength="1015.40" waitingTime="6.50" waitingCount="8" stopTime="0.00" timeLoss="44.28" rerouteNo="0" devices="tripinfo_down_183" vType="car@down_183" speedFactor="1.08" vaporized=""/>
    <tripinfo id="up_137" depart="100.50" departLane="53o_0" departPos="4.60" departSpeed="0.00" departDelay="31.00" arrival="305.00" arrivalLane="54i_1" arrivalPos="6.00" arrivalSpeed="2.55" duration="204.50" routeLength="1015.40" waitingTime="21.00" waitingCount="15" stopTime="0.00" timeLoss="59.38" rerouteNo="0" devices="tripinfo_up_137" vType="car@up_137" speedFactor="1.02" vaporized=""/>
    <tripinfo id="down_142" depart="87.00" departLane="54o_0" departPos="4.60" departSpeed="0.00" departDelay="15.50" arrival="307.00" arrivalLane="53i_1" arrivalPos="6.00" arrivalSpeed="2.61" duration="220.00" routeLength="1015.40" waitingTime="21.50" waitingCount="18" stopTime="0.00" timeLoss="74.89" rerouteNo="0" devices="tripinfo_down_142" vType="car@down_142" speedFactor="0.94" vaporized=""/>
    <tripinfo id="up_144" depart="106.50" departLane="53o_0" departPos="4.60" departSpeed="0.00" departDelay="34.50" arrival="308.00" arrivalLane="54i_1" arrivalPos="6.00" arrivalSpeed="2.45" duration="201.50" routeLength="1015.40" waitingTime="17.50" waitingCount="20" stopTime="0.00" timeLoss="56.35" rerouteNo="0" devices="tripinfo_up_144" vType="car@up_144" speedFactor="0.73" vaporized=""/>
    <tripinfo id="up_147" depart="113.50" departLane="53o_0" departPos="4.60" departSpeed="0.00" departDelay="40.50" arrival="310.50" arrivalLane="54i_1" arrivalPos="6.00" arrivalSpeed="2.45" duration="197.00" routeLength="1015.40" waitingTime="7.50" waitingCount="7" stopTime="0.00" timeLoss="51.85" rerouteNo="0" devices="tripinfo_up_147" vType="car@up_147" speedFactor="1.00" vaporized=""/>
    <tripinfo id="up_153" depart="116.50" departLane="53o_0" departPos="4.60" departSpeed="0.00" departDelay="40.00" arrival="314.00" arrivalLane="54i_1" arrivalPos="6.00" arrivalSpeed="2.86" duration="197.50" routeLength="1015.40" waitingTime="11.50" waitingCount="14" stopTime="0.00" timeLoss="52.45" rerouteNo="0" devices="tripinfo_up_153" vType="car@up_153" speedFactor="0.93" vaporized=""/>
    <tripinfo id="down_186" depart="112.50" departLane="54o_0" departPos="4.60" departSpeed="0.00" departDelay="22.00" arrival="317.50" arrivalLane="53i_1" arrivalPos="6.00" arrivalSpeed="3.69" duration="205.00" routeLength="1015.40" waitingTime="8.00" waitingCount="9" stopTime="0.00" timeLoss="59.77" rerouteNo="0" devices="tripinfo_down_186" vType="car@down_186" speedFactor="1.08" vaporized=""/>
    <tripinfo id="up_157" depart="120.00" departLane="53o_0" departPos="4.60" departSpeed="0.00" departDelay="41.50" arrival="319.00" arrivalLane="54i_1" arrivalPos="6.00" arrivalSpeed="3.00" duration="199.00" routeLength="1015.40" waitingTime="9.00" waitingCount="11" stopTime="0.00" timeLoss="53.76" rerouteNo="0" devices="tripinfo_up_157" vType="car@up_157" speedFactor="1.08" vaporized=""/>
    <tripinfo id="down_154" depart="90.50" departLane="54o_0" departPos="4.60" departSpeed="0.00" departDelay="14.00" arrival="320.00" arrivalLane="53i_1" arrivalPos="6.00" arrivalSpeed="2.41" duration="229.50" routeLength="1015.40" waitingTime="28.00" waitingCount="17" stopTime="0.00" timeLoss="84.35" rerouteNo="0" devices="tripinfo_down_154" vType="car@down_154" speedFactor="1.06" vaporized=""/>
    <tripinfo id="up_146" depart="110.00" departLane="53o_0" departPos="4.60" departSpeed="0.00" departDelay="37.50" arrival="322.00" arrivalLane="54i_1" arrivalPos="6.00" arrivalSpeed="4.43" duration="212.00" routeLength="1015.40" waitingTime="27.00" waitingCount="10" stopTime="0.00" timeLoss="66.90" rerouteNo="0" devices="tripinfo_up_146" vType="car@up_146" speedFactor="0.89" vaporized=""/>
    <tripinfo id="up_159" depart="123.00" departLane="53o_0" departPos="4.60" departSpeed="0.00" departDelay="44.00" arrival="326.00" arrivalLane="54i_1" arrivalPos="6.00" arrivalSpeed="3.04" duration="203.00" routeLength="1015.40" waitingTime="12.50" waitingCount="7" stopTime="0.00" timeLoss="57.86" rerouteNo="0" devices="tripinfo_up_159" vType="car@up_159" speedFactor="1.14" vaporized=""/>
    <tripinfo id="up_169" depart="132.50" departLane="53o_0" departPos="4.60" departSpeed="0.00" departDelay="51.00" arrival="328.50" arrivalLane="54i_1" arrivalPos="6.00" arrivalSpeed="2.81" duration="196.00" routeLength="1015.40" waitingTime="8.00" waitingCount="8" stopTime="0.00" timeLoss="50.76" rerouteNo="0" devices="tripinfo_up_169" vType="car@up_169" speedFactor="0.94" vaporized=""/>
    <tripinfo id="down_176" depart="103.50" departLane="54o_0" departPos="4.60" departSpeed="0.00" departDelay="19.00" arrival="329.50" arrivalLane="53i_1" arrivalPos="6.00" arrivalSpeed="2.79" duration="226.00" routeLength="1015.40" waitingTime="28.50" waitingCount="16" stopTime="0.00" timeLoss="80.93" rerouteNo="0" devices="tripinfo_down_176" vType="car@down_176" speedFactor="1.09" vaporized=""/>