<?xml version="1.0" encoding="UTF-8"?>

<!-- generated on 2021-06-10 09:43:25 by Eclipse SUMO GUI Version 1.9.2
<configuration xmlns:xsi="http://www.w3.org/2001/XMLSchema-instance" xsi:noNamespaceSchemaLocation="http://sumo.dlr.de/xsd/sumoConfiguration.xsd">

    <input>
        <net-file value="2way-single-intersection/single-intersection.net.xml"/>
        <route-files value="2way-single-intersection/single-intersection-vhvh.rou.xml"/>
    </input>

    <output>
        <tripinfo-output value="tripinfo.xml"/>
        <collision-output value="collisions.sumocfg"/>
    </output>

    <time>
        <step-length value=".5"/>
    </time>

    <processing>
        <collision.action value="remove"/>
        <collision.check-junctions value="true"/>
        <collision.mingap-factor value="0"/>
        <time-to-teleport value="-1"/>
        <time-to-teleport.highways value="-1"/>
    </processing>

    <traci_server>
        <remote-port value="54013"/>
    </traci_server>

    <gui_only>
        <tracker-interval value="0.5"/>
    </gui_only>

</configuration>
-->

<tripinfos xmlns:xsi="http://www.w3.org/2001/XMLSchema-instance" xsi:noNamespaceSchemaLocation="http://sumo.dlr.de/xsd/tripinfo_file.xsd">
    <tripinfo id="flow_we.0" depart="0.00" departLane="w_t_0" departPos="4.60" departSpeed="15.05" departDelay="0.00" arrival="20.00" arrivalLane="t_e_0" arrivalPos="139.60" arrivalSpeed="14.96" duration="20.00" routeLength="295.47" waitingTime="0.00" waitingCount="0" stopTime="0.00" timeLoss="0.17" rerouteNo="0" devices="tripinfo_flow_we.0" vType="car@flow_we.0" speedFactor="1.08" vaporized=""/>
    <tripinfo id="flow_ns.0" depart="0.00" departLane="n_t_0" departPos="4.60" departSpeed="14.73" departDelay="0.00" arrival="20.50" arrivalLane="t_s_0" arrivalPos="139.60" arrivalSpeed="14.54" duration="20.50" routeLength="295.40" waitingTime="0.00" waitingCount="0" stopTime="0.00" timeLoss="0.18" rerouteNo="0" devices="tripinfo_flow_ns.0" vType="car@flow_ns.0" speedFactor="1.06" vaporized=""/>
    <tripinfo id="flow_ns.2" depart="7.50" departLane="n_t_0" departPos="4.60" departSpeed="11.55" departDelay="0.30" arrival="20.00" arrivalLane=":t_1_0" arrivalPos="7.71" arrivalSpeed="11.37" duration="12.50" routeLength="142.61" waitingTime="0.00" waitingCount="0" stopTime="0.00" timeLoss="0.15" rerouteNo="0" devices="tripinfo_flow_ns.2" vType="car@flow_ns.2" speedFactor="0.83" vaporized="collision"/>
    <tripinfo id="flow_ew.1" depart="7.50" departLane="e_t_0" departPos="4.60" departSpeed="12.32" departDelay="0.30" arrival="20.00" arrivalLane=":t_4_0" arrivalPos="17.38" arrivalSpeed="12.28" duration="12.50" routeLength="152.38" waitingTime="0.00" waitingCount="0" stopTime="0.00" timeLoss="0.13" rerouteNo="0" devices="tripinfo_flow_ew.1" vType="car@flow_ew.1" speedFactor="0.89" vaporized="collision"/>
    <tripinfo id="flow_ew.0" depart="0.00" departLane="e_t_0" departPos="4.60" departSpeed="14.04" departDelay="0.00" arrival="21.50" arrivalLane="t_w_0" arrivalPos="139.67" arrivalSpeed="13.95" duration="21.50" routeLength="295.47" waitingTime="0.00" waitingCount="0" stopTime="0.00" timeLoss="0.17" rerouteNo="0" devices="tripinfo_flow_ew.0" vType="car@flow_ew.0" speedFactor="1.01" vaporized=""/>
    <tripinfo id="flow_sn.0" depart="0.00" departLane="s_t_0" departPos="4.60" departSpeed="13.04" departDelay="0.00" arrival="23.00" arrivalLane="t_n_0" arrivalPos="139.50" arrivalSpeed="12.87" duration="23.00" routeLength="295.40" waitingTime="0.00" waitingCount="0" stopTime="0.00" timeLoss="0.19" rerouteNo="0" devices="tripinfo_flow_sn.0" vType="car@flow_sn.0" speedFactor="0.94" vaporized=""/>
    <tripinfo id="flow_ns.3" depart="11.00" departLane="n_t_0" departPos="4.60" departSpeed="11.91" departDelay="0.20" arrival="24.00" arrivalLane=":t_1_0" arrivalPos="18.24" arrivalSpeed="11.82" duration="13.00" routeLength="153.14" waitingTime="0.00" waitingCount="0" stopTime="0.00" timeLoss="0.14" rerouteNo="0" devices="tripinfo_flow_ns.3" vType="car@flow_ns.3" speedFactor="0.86" vaporized="collision"/>
    <tripinfo id="flow_we.2" depart="14.50" departLane="w_t_0" departPos="4.60" departSpeed="15.61" departDelay="0.10" arrival="24.00" arrivalLane=":t_10_0" arrivalPos="5.76" arrivalSpeed="11.65" duration="9.50" routeLength="140.83" waitingTime="0.00" waitingCount="0" stopTime="0.00" timeLoss="0.48" rerouteNo="0" devices="tripinfo_flow_we.2" vType="car@flow_we.2" speedFactor="1.12" vaporized="collision"/>
    <tripinfo id="flow_ns.1" depart="4.00" departLane="n_t_0" departPos="4.60" departSpeed="14.32" departDelay="0.40" arrival="25.00" arrivalLane="t_s_0" arrivalPos="139.60" arrivalSpeed="14.14" duration="21.00" routeLength="295.40" waitingTime="0.00" waitingCount="0" stopTime="0.00" timeLoss="0.17" rerouteNo="0" devices="tripinfo_flow_ns.1" vType="car@flow_ns.1" speedFactor="1.03" vaporized=""/>
    <tripinfo id="flow_sn.1" depart="7.50" departLane="s_t_0" departPos="4.60" departSpeed="14.54" departDelay="0.30" arrival="28.00" arrivalLane="t_n_0" arrivalPos="139.50" arrivalSpeed="14.51" duration="20.50" routeLength="295.40" waitingTime="0.00" waitingCount="0" stopTime="0.00" timeLoss="0.17" rerouteNo="0" devices="tripinfo_flow_sn.1" vType="car@flow_sn.1" speedFactor="1.05" vaporized=""/>
    <tripinfo id="flow_we.1" depart="7.50" departLane="w_t_0" departPos="4.60" departSpeed="13.04" departDelay="0.30" arrival="30.50" arrivalLane="t_e_0" arrivalPos="139.60" arrivalSpeed="12.92" duration="23.00" routeLength="295.47" waitingTime="0.00" waitingCount="0" stopTime="0.00" timeLoss="0.24" rerouteNo="0" devices="tripinfo_flow_we.1" vType="car@flow_we.1" speedFactor="0.94" vaporized=""/>
    <tripinfo id="flow_sn.3" depart="22.00" departLane="s_t_0" departPos="4.60" departSpeed="12.21" departDelay="0.40" arrival="34.00" arrivalLane=":t_7_0" arrivalPos="5.04" arrivalSpeed="9.15" duration="12.00" routeLength="140.04" waitingTime="0.00" waitingCount="0" stopTime="0.00" timeLoss="0.53" rerouteNo="0" devices="tripinfo_flow_sn.3" vType="car@flow_sn.3" speedFactor="0.88" vaporized="collision"/>
    <tripinfo id="flow_we.3" depart="22.00" departLane="w_t_0" departPos="4.60" departSpeed="13.01" departDelay="0.40" arrival="34.00" arrivalLane=":t_10_0" arrivalPos="18.07" arrivalSpeed="11.46" duration="12.00" routeLength="153.14" waitingTime="0.00" waitingCount="0" stopTime="0.00" timeLoss="0.23" rerouteNo="0" devices="tripinfo_flow_we.3" vType="car@flow_we.3" speedFactor="0.94" vaporized="collision"/>
    <tripinfo id="flow_ew.2" depart="14.50" departLane="e_t_0" departPos="4.60" departSpeed="14.55" departDelay="0.10" arrival="35.00" arrivalLane="t_w_0" arrivalPos="139.67" arrivalSpeed="14.52" duration="20.50" routeLength="295.47" waitingTime="0.00" waitingCount="0" stopTime="0.00" timeLoss="0.15" rerouteNo="0" devices="tripinfo_flow_ew.2" vType="car@flow_ew.2" speedFactor="1.05" vaporized=""/>
    <tripinfo id="flow_ns.4" depart="14.50" departLane="n_t_0" departPos="4.60" departSpeed="15.16" departDelay="0.10" arrival="35.50" arrivalLane="t_s_0" arrivalPos="139.60" arrivalSpeed="15.01" duration="21.00" routeLength="295.40" waitingTime="0.00" waitingCount="0" stopTime="0.00" timeLoss="1.07" rerouteNo="0" devices="tripinfo_flow_ns.4" vType="car@flow_ns.4" speedFactor="1.09" vaporized=""/>
    <tripinfo id="flow_sn.2" depart="14.50" departLane="s_t_0" departPos="4.60" departSpeed="14.27" departDelay="0.10" arrival="35.50" arrivalLane="t_n_0" arrivalPos="139.50" arrivalSpeed="14.09" duration="21.00" routeLength="295.40" waitingTime="0.00" waitingCount="0" stopTime="0.00" timeLoss="0.15" rerouteNo="0" devices="tripinfo_flow_sn.2" vType="car@flow_sn.2" speedFactor="1.03" vaporized=""/>
    <tripinfo id="flow_ns.5" depart="18.00" departLane="n_t_0" departPos="4.60" departSpeed="13.78" departDelay="0.00" arrival="40.00" arrivalLane="t_s_0" arrivalPos="139.60" arrivalSpeed="13.70" duration="22.00" routeLength="295.40" waitingTime="0.00" waitingCount="0" stopTime="0.00" timeLoss="0.24" rerouteNo="0" devices="tripinfo_flow_ns.5" vType="car@flow_ns.5" speedFactor="0.99" vaporized=""/>
    <tripinfo id="flow_ew.3" depart="22.00" departLane="e_t_0" departPos="4.60" departSpeed="13.09" departDelay="0.40" arrival="45.00" arrivalLane="t_w_0" arrivalPos="139.67" arrivalSpeed="12.85" duration="23.00" routeLength="295.47" waitingTime="0.00" waitingCount="0" stopTime="0.00" timeLoss="0.22" rerouteNo="0" devices="tripinfo_flow_ew.3" vType="car@flow_ew.3" speedFactor="0.94" vaporized=""/>
    <tripinfo id="flow_ns.6" depart="22.00" departLane="n_t_0" departPos="4.60" departSpeed="12.88" departDelay="0.40" arrival="45.50" arrivalLane="t_s_0" arrivalPos="139.60" arrivalSpeed="12.79" duration="23.50" routeLength="295.40" waitingTime="0.00" waitingCount="0" stopTime="0.00" timeLoss="0.20" rerouteNo="0" devices="tripinfo_flow_ns.6" vType="car@flow_ns.6" speedFactor="0.93" vaporized=""/>
    <tripinfo id="flow_ns.7" depart="25.50" departLane="n_t_0" departPos="4.60" departSpeed="16.10" departDelay="0.30" arrival="47.00" arrivalLane="t_s_0" arrivalPos="139.60" arrivalSpeed="13.85" duration="21.50" routeLength="295.40" waitingTime="0.00" waitingCount="0" stopTime="0.00" timeLoss="2.74" rerouteNo="0" devices="tripinfo_flow_ns.7" vType="car@flow_ns.7" speedFactor="1.16" vaporized=""/>
    <tripinfo id="flow_ns.8" depart="29.00" departLane="n_t_0" departPos="4.60" departSpeed="14.15" departDelay="0.20" arrival="50.50" arrivalLane="t_s_0" arrivalPos="139.60" arrivalSpeed="14.06" duration="21.50" routeLength="295.40" waitingTime="0.00" waitingCount="0" stopTime="0.00" timeLoss="0.18" rerouteNo="0" devices="tripinfo_flow_ns.8" vType="car@flow_ns.8" speedFactor="1.02" vaporized=""/>
    <tripinfo id="flow_sn.4" depart="29.00" departLane="s_t_0" departPos="4.60" departSpeed="14.04" departDelay="0.20" arrival="50.50" arrivalLane="t_n_0" arrivalPos="139.50" arrivalSpeed="13.99" duration="21.50" routeLength="295.40" waitingTime="0.00" waitingCount="0" stopTime="0.00" timeLoss="0.20" rerouteNo="0" devices="tripinfo_flow_sn.4" vType="car@flow_sn.4" speedFactor="1.01" vaporized=""/>
    <tripinfo id="flow_ew.4" depart="29.00" departLane="e_t_0" departPos="4.60" departSpeed="13.55" departDelay="0.20" arrival="51.50" arrivalLane="t_w_0" arrivalPos="139.67" arrivalSpeed="13.34" duration="22.50" routeLength="295.47" waitingTime="0.00" waitingCount="0" stopTime="0.00" timeLoss="0.22" rerouteNo="0" devices="tripinfo_flow_ew.4" vType="car@flow_ew.4" speedFactor="0.98" vaporized=""/>
    <tripinfo id="flow_we.4" depart="29.00" departLane="w_t_0" departPos="4.60" departSpeed="12.37" departDelay="0.20" arrival="53.50" arrivalLane="t_e_0" arrivalPos="139.60" arrivalSpeed="12.21" duration="24.50" routeLength="295.47" waitingTime="0.00" waitingCount="0" stopTime="0.00" timeLoss="0.24" rerouteNo="0" devices="tripinfo_flow_we.4" vType="car@flow_we.4" speedFactor="0.89" vaporized=""/>
    <tripinfo id="flow_we.5" depart="36.00" departLane="w_t_0" departPos="4.60" departSpeed="15.73" departDelay="0.00" arrival="56.00" arrivalLane="t_e_0" arrivalPos="139.60" arrivalSpeed="15.67" duration="20.00" routeLength="295.47" waitingTime="0.00" waitingCount="0" stopTime="0.00" timeLoss="0.95" rerouteNo="0" devices="tripinfo_flow_we.5" vType="car@flow_we.5" speedFactor="1.13" vaporized=""/>
    <tripinfo id="flow_ns.9" depart="32.50" departLane="n_t_0" departPos="4.60" departSpeed="11.48" departDelay="0.10" arrival="59.00" arrivalLane="t_s_0" arrivalPos="139.60" arrivalSpeed="11.46" duration="26.50" routeLength="295.40" waitingTime="0.00" waitingCount="0" stopTime="0.00" timeLoss="0.54" rerouteNo="0" devices="tripinfo_flow_ns.9" vType="car@flow_ns.9" speedFactor="0.83" vaporized=""/>
    <tripinfo id="flow_ew.5" depart="36.00" departLane="e_t_0" departPos="4.60" departSpeed="13.19" departDelay="0.00" arrival="59.00" arrivalLane="t_w_0" arrivalPos="139.67" arrivalSpeed="12.96" duration="23.00" routeLength="295.47" waitingTime="0.00" waitingCount="0" stopTime="0.00" timeLoss="0.22" rerouteNo="0" devices="tripinfo_flow_ew.5" vType="car@flow_ew.5" speedFactor="0.95" vaporized=""/>
    <tripinfo id="flow_sn.5" depart="36.00" departLane="s_t_0" departPos="4.60" departSpeed="12.75" departDelay="0.00" arrival="59.50" arrivalLane="t_n_0" arrivalPos="139.50" arrivalSpeed="12.71" duration="23.50" routeLength="295.40" waitingTime="0.00" waitingCount="0" stopTime="0.00" timeLoss="0.23" rerouteNo="0" devices="tripinfo_flow_sn.5" vType="car@flow_sn.5" speedFactor="0.92" vaporized=""/>
    <tripinfo id="flow_ns.10" depart="36.00" departLane="n_t_0" departPos="4.60" departSpeed="12.13" departDelay="0.00" arrival="61.00" arrivalLane="t_s_0" arrivalPos="139.60" arrivalSpeed="12.00" duration="25.00" routeLength="295.40" waitingTime="0.00" waitingCount="0" stopTime="0.00" timeLoss="0.51" rerouteNo="0" devices="tripinfo_flow_ns.10" vType="car@flow_ns.10" speedFactor="0.87" vaporized=""/>
    <tripinfo id="flow_we.6" depart="43.50" departLane="w_t_0" departPos="4.60" departSpeed="16.29" departDelay="0.30" arrival="62.00" arrivalLane="t_e_0" arrivalPos="139.60" arrivalSpeed="16.18" duration="18.50" routeLength="295.47" waitingTime="0.00" waitingCount="0" stopTime="0.00" timeLoss="0.16" rerouteNo="0" devices="tripinfo_flow_we.6" vType="car@flow_we.6" speedFactor="1.17" vaporized=""/>
    <tripinfo id="flow_sn.6" depart="43.50" departLane="s_t_0" departPos="4.60" departSpeed="16.05" departDelay="0.30" arrival="62.50" arrivalLane="t_n_0" arrivalPos="139.50" arrivalSpeed="15.90" duration="19.00" routeLength="295.40" waitingTime="0.00" waitingCount="0" stopTime="0.00" timeLoss="0.14" rerouteNo="0" devices="tripinfo_flow_sn.6" vType="car@flow_sn.6" speedFactor="1.15" vaporized=""/>
    <tripinfo id="flow_ns.11" depart="40.00" departLane="n_t_0" departPos="4.60" departSpeed="12.95" departDelay="0.40" arrival="63.50" arrivalLane="t_s_0" arrivalPos="139.60" arrivalSpeed="12.84" duration="23.50" routeLength="295.40" waitingTime="0.00" waitingCount="0" stopTime="0.00" timeLoss="0.22" rerouteNo="0" devices="tripinfo_flow_ns.11" vType="car@flow_ns.11" speedFactor="0.93" vaporized=""/>
    <tripinfo id="flow_ns.12" depart="43.50" departLane="n_t_0" departPos="4.60" departSpeed="16.38" departDelay="0.30" arrival="64.50" arrivalLane="t_s_0" arrivalPos="139.60" arrivalSpeed="13.41" duration="21.00" routeLength="295.40" waitingTime="0.00" waitingCount="0" stopTime="0.00" timeLoss="2.91" rerouteNo="0" devices="tripinfo_flow_ns.12" vType="car@flow_ns.12" speedFactor="1.18" vaporized=""/>
    <tripinfo id="flow_ew.6" depart="43.50" departLane="e_t_0" departPos="4.60" departSpeed="13.97" departDelay="0.30" arrival="65.00" arrivalLane="t_w_0" arrivalPos="139.67" arrivalSpeed="13.83" duration="21.50" routeLength="295.47" waitingTime="0.00" waitingCount="0" stopTime="0.00" timeLoss="0.19" rerouteNo="0" devices="tripinfo_flow_ew.6" vType="car@flow_ew.6" speedFactor="1.01" vaporized=""/>
    <tripinfo id="flow_ns.16" depart="58.00" departLane="n_t_0" departPos="4.60" departSpeed="14.32" departDelay="0.40" arrival="68.00" arrivalLane=":t_1_0" arrivalPos="7.05" arrivalSpeed="14.14" duration="10.00" routeLength="141.95" waitingTime="0.00" waitingCount="0" stopTime="0.00" timeLoss="0.09" rerouteNo="0" devices="tripinfo_flow_ns.16" vType="car@flow_ns.16" speedFactor="1.03" vaporized="collision"/>
    <tripinfo id="flow_ew.8" depart="58.00" departLane="e_t_0" departPos="4.60" departSpeed="15.18" departDelay="0.40" arrival="68.00" arrivalLane=":t_4_0" arrivalPos="15.51" arrivalSpeed="15.17" duration="10.00" routeLength="150.51" waitingTime="0.00" waitingCount="0" stopTime="0.00" timeLoss="0.08" rerouteNo="0" devices="tripinfo_flow_ew.8" vType="car@flow_ew.8" speedFactor="1.09" vaporized="collision"/>
    <tripinfo id="flow_ns.13" depart="47.00" departLane="n_t_0" departPos="4.60" departSpeed="13.83" departDelay="0.20" arrival="69.00" arrivalLane="t_s_0" arrivalPos="139.60" arrivalSpeed="13.66" duration="22.00" routeLength="295.40" waitingTime="0.00" waitingCount="0" stopTime="0.00" timeLoss="0.23" rerouteNo="0" devices="tripinfo_flow_ns.13" vType="car@flow_ns.13" speedFactor="0.99" vaporized=""/>
    <tripinfo id="flow_ew.7" depart="50.50" departLane="e_t_0" departPos="4.60" departSpeed="16.40" departDelay="0.10" arrival="69.00" arrivalLane="t_w_0" arrivalPos="139.67" arrivalSpeed="16.16" duration="18.50" routeLength="295.47" waitingTime="0.00" waitingCount="0" stopTime="0.00" timeLoss="0.12" rerouteNo="0" devices="tripinfo_flow_ew.7" vType="car@flow_ew.7" speedFactor="1.18" vaporized=""/>
    <tripinfo id="flow_we.7" depart="50.50" departLane="w_t_0" departPos="4.60" departSpeed="15.32" departDelay="0.10" arrival="70.00" arrivalLane="t_e_0" arrivalPos="139.60" arrivalSpeed="15.21" duration="19.50" routeLength="295.47" waitingTime="0.00" waitingCount="0" stopTime="0.00" timeLoss="0.14" rerouteNo="0" devices="tripinfo_flow_we.7" vType="car@flow_we.7" speedFactor="1.10" vaporized=""/>
    <tripinfo id="flow_ns.14" depart="50.50" departLane="n_t_0" departPos="4.60" departSpeed="14.17" departDelay="0.10" arrival="72.00" arrivalLane="t_s_0" arrivalPos="139.60" arrivalSpeed="14.08" duration="21.50" routeLength="295.40" waitingTime="0.00" waitingCount="0" stopTime="0.00" timeLoss="0.37" rerouteNo="0" devices="tripinfo_flow_ns.14" vType="car@flow_ns.14" speedFactor="1.02" vaporized=""/>
    <tripinfo id="flow_sn.7" depart="50.50" departLane="s_t_0" departPos="4.60" departSpeed="13.53" departDelay="0.10" arrival="73.00" arrivalLane="t_n_0" arrivalPos="139.50" arrivalSpeed="13.48" duration="22.50" routeLength="295.40" waitingTime="0.00" waitingCount="0" stopTime="0.00" timeLoss="0.18" rerouteNo="0" devices="tripinfo_flow_sn.7" vType="car@flow_sn.7" speedFactor="0.97" vaporized=""/>
    <tripinfo id="flow_ns.15" depart="54.00" departLane="n_t_0" departPos="4.60" departSpeed="12.52" departDelay="0.00" arrival="78.00" arrivalLane="t_s_0" arrivalPos="139.60" arrivalSpeed="12.32" duration="24.00" routeLength="295.40" waitingTime="0.00" waitingCount="0" stopTime="0.00" timeLoss="0.21" rerouteNo="0" devices="tripinfo_flow_ns.15" vType="car@flow_ns.15" speedFactor="0.90" vaporized=""/>
    <tripinfo id="flow_we.8" depart="58.00" departLane="w_t_0" departPos="4.60" departSpeed="14.42" departDelay="0.40" arrival="79.00" arrivalLane="t_e_0" arrivalPos="139.60" arrivalSpeed="14.25" duration="21.00" routeLength="295.47" waitingTime="0.00" waitingCount="0" stopTime="0.00" timeLoss="0.17" rerouteNo="0" devices="tripinfo_flow_we.8" vType="car@flow_we.8" speedFactor="1.04" vaporized=""/>
    <tripinfo id="flow_sn.8" depart="58.00" departLane="s_t_0" departPos="4.60" departSpeed="13.30" departDelay="0.40" arrival="80.50" arrivalLane="t_n_0" arrivalPos="139.50" arrivalSpeed="13.13" duration="22.50" routeLength="295.40" waitingTime="0.00" waitingCount="0" stopTime="0.00" timeLoss="0.23" rerouteNo="0" devices="tripinfo_flow_sn.8" vType="car@flow_sn.8" speedFactor="0.96" vaporized=""/>
    <tripinfo id="flow_ns.19" depart="68.50" departLane="n_t_0" departPos="4.60" departSpeed="11.82" departDelay="0.10" arrival="81.50" arrivalLane=":t_1_0" arrivalPos="17.30" arrivalSpeed="11.78" duration="13.00" routeLength="152.20" waitingTime="0.00" waitingCount="0" stopTime="0.00" timeLoss="0.12" rerouteNo="0" devices="tripinfo_flow_ns.19" vType="car@flow_ns.19" speedFactor="0.85" vaporized="collision"/>
    <tripinfo id="flow_we.10" depart="72.00" departLane="w_t_0" departPos="4.60" departSpeed="15.23" departDelay="0.00" arrival="81.50" arrivalLane=":t_10_0" arrivalPos="8.47" arrivalSpeed="15.10" duration="9.50" routeLength="143.54" waitingTime="0.00" waitingCount="0" stopTime="0.00" timeLoss="0.08" rerouteNo="0" devices="tripinfo_flow_we.10" vType="car@flow_we.10" speedFactor="1.10" vaporized="collision"/>
    <tripinfo id="flow_ns.17" depart="61.50" departLane="n_t_0" departPos="4.60" departSpeed="14.50" departDelay="0.30" arrival="82.50" arrivalLane="t_s_0" arrivalPos="139.60" arrivalSpeed="14.50" duration="21.00" routeLength="295.40" waitingTime="0.00" waitingCount="0" stopTime="0.00" timeLoss="0.34" rerouteNo="0" devices="tripinfo_flow_ns.17" vType="car@flow_ns.17" speedFactor="1.04" vaporized=""/>
    <tripinfo id="flow_ns.18" depart="65.00" departLane="n_t_0" departPos="4.60" departSpeed="15.12" departDelay="0.20" arrival="85.00" arrivalLane="t_s_0" arrivalPos="139.60" arrivalSpeed="15.04" duration="20.00" routeLength="295.40" waitingTime="0.00" waitingCount="0" stopTime="0.00" timeLoss="0.31" rerouteNo="0" devices="tripinfo_flow_ns.18" vType="car@flow_ns.18" speedFactor="1.09" vaporized=""/>
    <tripinfo id="flow_sn.9" depart="65.00" departLane="s_t_0" departPos="4.60" departSpeed="13.86" departDelay="0.20" arrival="87.00" arrivalLane="t_n_0" arrivalPos="139.50" arrivalSpeed="13.70" duration="22.00" routeLength="295.40" waitingTime="0.00" waitingCount="0" stopTime="0.00" timeLoss="0.43" rerouteNo="0" devices="tripinfo_flow_sn.9" vType="car@flow_sn.9" speedFactor="1.00" vaporized=""/>
    <tripinfo id="flow_ew.9" depart="65.00" departLane="e_t_0" departPos="4.60" departSpeed="12.52" departDelay="0.20" arrival="89.00" arrivalLane="t_w_0" arrivalPos="139.67" arrivalSpeed="12.51" duration="24.00" routeLength="295.47" waitingTime="0.00" waitingCount="0" stopTime="0.00" timeLoss="0.25" rerouteNo="0" devices="tripinfo_flow_ew.9" vType="car@flow_ew.9" speedFactor="0.90" vaporized=""/>
    <tripinfo id="flow_we.9" depart="65.00" departLane="w_t_0" departPos="4.60" departSpeed="12.19" departDelay="0.20" arrival="89.50" arrivalLane="t_e_0" arrivalPos="139.60" arrivalSpeed="12.10" duration="24.50" routeLength="295.47" waitingTime="0.00" waitingCount="0" stopTime="0.00" timeLoss="0.26" rerouteNo="0" devices="tripinfo_flow_we.9" vType="car@flow_we.9" speedFactor="0.88" vaporized=""/>
    <tripinfo id="flow_sn.10" depart="72.00" departLane="s_t_0" departPos="4.60" departSpeed="16.25" departDelay="0.00" arrival="90.50" arrivalLane="t_n_0" arrivalPos="139.50" arrivalSpeed="16.14" duration="18.50" routeLength="295.40" waitingTime="0.00" waitingCount="0" stopTime="0.00" timeLoss="0.13" rerouteNo="0" devices="tripinfo_flow_sn.10" vType="car@flow_sn.10" speedFactor="1.17" vaporized=""/>
    <tripinfo id="flow_ew.10" depart="72.00" departLane="e_t_0" departPos="4.60" departSpeed="14.13" departDelay="0.00" arrival="93.50" arrivalLane="t_w_0" arrivalPos="139.67" arrivalSpeed="13.94" duration="21.50" routeLength="295.47" waitingTime="0.00" waitingCount="0" stopTime="0.00" timeLoss="0.40" rerouteNo="0" devices="tripinfo_flow_ew.10" vType="car@flow_ew.10" speedFactor="1.02" vaporized=""/>
    <tripinfo id="flow_sn.12" depart="86.50" departLane="s_t_0" departPos="4.60" departSpeed="15.56" departDelay="0.10" arrival="96.50" arrivalLane=":t_7_0" arrivalPos="19.10" arrivalSpeed="15.37" duration="10.00" routeLength="154.10" waitingTime="0.00" waitingCount="0" stopTime="0.00" timeLoss="0.10" rerouteNo="0" devices="tripinfo_flow_sn.12" vType="car@flow_sn.12" speedFactor="1.12" vaporized="collision"/>
    <tripinfo id="flow_ew.12" depart="86.50" departLane="e_t_0" departPos="4.60" departSpeed="14.12" departDelay="0.10" arrival="96.50" arrivalLane=":t_4_0" arrivalPos="4.80" arrivalSpeed="13.97" duration="10.00" routeLength="139.80" waitingTime="0.00" waitingCount="0" stopTime="0.00" timeLoss="0.10" rerouteNo="0" devices="tripinfo_flow_ew.12" vType="car@flow_ew.12" speedFactor="1.02" vaporized="collision"/>
    <tripinfo id="flow_ns.20" depart="72.00" departLane="n_t_0" departPos="4.60" departSpeed="11.88" departDelay="0.00" arrival="97.50" arrivalLane="t_s_0" arrivalPos="139.60" arrivalSpeed="11.69" duration="25.50" routeLength="295.40" waitingTime="0.00" waitingCount="0" stopTime="0.00" timeLoss="0.30" rerouteNo="0" devices="tripinfo_flow_ns.20" vType="car@flow_ns.20" speedFactor="0.85" vaporized=""/>
    <tripinfo id="flow_ns.24" depart="86.50" departLane="n_t_0" departPos="4.60" departSpeed="15.05" departDelay="0.10" arrival="97.00" arrivalLane=":t_1_0" arrivalPos="20.50" arrivalSpeed="13.73" duration="10.50" routeLength="155.40" waitingTime="0.00" waitingCount="0" stopTime="0.00" timeLoss="0.17" rerouteNo="0" devices="tripinfo_flow_ns.24" vType="car@flow_ns.24" speedFactor="1.08" vaporized="collision"/>
    <tripinfo id="flow_we.12" depart="86.50" departLane="w_t_0" departPos="4.60" departSpeed="13.72" departDelay="0.10" arrival="97.00" arrivalLane=":t_10_0" arrivalPos="7.46" arrivalSpeed="13.52" duration="10.50" routeLength="142.53" waitingTime="0.00" waitingCount="0" stopTime="0.00" timeLoss="0.11" rerouteNo="0" devices="tripinfo_flow_we.12" vType="car@flow_we.12" speedFactor="0.99" vaporized="collision"/>
    <tripinfo id="flow_ew.11" depart="79.50" departLane="e_t_0" departPos="4.60" departSpeed="15.88" departDelay="0.30" arrival="98.50" arrivalLane="t_w_0" arrivalPos="139.67" arrivalSpeed="15.86" duration="19.00" routeLength="295.47" waitingTime="0.00" waitingCount="0" stopTime="0.00" timeLoss="0.14" rerouteNo="0" devices="tripinfo_flow_ew.11" vType="car@flow_ew.11" speedFactor="1.14" vaporized=""/>
    <tripinfo id="flow_ns.21" depart="76.00" departLane="n_t_0" departPos="4.60" departSpeed="13.94" departDelay="0.40" arrival="99.00" arrivalLane="t_s_0" arrivalPos="139.60" arrivalSpeed="12.94" duration="23.00" routeLength="295.40" waitingTime="0.00" waitingCount="0" stopTime="0.00" timeLoss="1.41" rerouteNo="0" devices="tripinfo_flow_ns.21" vType="car@flow_ns.21" speedFactor="1.00" vaporized=""/>
    <tripinfo id="flow_we.11" depart="79.50" departLane="w_t_0" departPos="4.60" departSpeed="14.23" departDelay="0.30" arrival="101.00" arrivalLane="t_e_0" arrivalPos="139.60" arrivalSpeed="14.09" duration="21.50" routeLength="295.47" waitingTime="0.00" waitingCount="0" stopTime="0.00" timeLoss="0.41" rerouteNo="0" devices="tripinfo_flow_we.11" vType="car@flow_we.11" speedFactor="1.02" vaporized=""/>
    <tripinfo id="flow_ns.22" depart="79.50" departLane="n_t_0" departPos="4.60" departSpeed="13.84" departDelay="0.30" arrival="101.50" arrivalLane="t_s_0" arrivalPos="139.60" arrivalSpeed="13.65" duration="22.00" routeLength="295.40" waitingTime="0.00" waitingCount="0" stopTime="0.00" timeLoss="0.36" rerouteNo="0" devices="tripinfo_flow_ns.22" vType="car@flow_ns.22" speedFactor="1.00" vaporized=""/>
    <tripinfo id="flow_sn.11" depart="79.50" departLane="s_t_0" departPos="4.60" departSpeed="12.49" departDelay="0.30" arrival="104.00" arrivalLane="t_n_0" arrivalPos="139.50" arrivalSpeed="12.40" duration="24.50" routeLength="295.40" waitingTime="0.00" waitingCount="0" stopTime="0.00" timeLoss="0.39" rerouteNo="0" devices="tripinfo_flow_sn.11" vType="car@flow_sn.11" speedFactor="0.90" vaporized=""/>
    <tripinfo id="flow_ns.23" depart="83.00" departLane="n_t_0" departPos="4.60" departSpeed="13.48" departDelay="0.20" arrival="105.50" arrivalLane="t_s_0" arrivalPos="139.60" arrivalSpeed="13.43" duration="22.50" routeLength="295.40" waitingTime="0.00" waitingCount="0" stopTime="0.00" timeLoss="0.36" rerouteNo="0" devices="tripinfo_flow_ns.23" vType="car@flow_ns.23" speedFactor="0.97" vaporized=""/>
    <tripinfo id="flow_ns.26" depart="94.00" departLane="n_t_0" departPos="4.60" departSpeed="12.26" departDelay="0.40" arrival="106.00" arrivalLane=":t_1_0" arrivalPos="10.60" arrivalSpeed="12.26" duration="12.00" routeLength="145.50" waitingTime="0.00" waitingCount="0" stopTime="0.00" timeLoss="0.14" rerouteNo="0" devices="tripinfo_flow_ns.26" vType="car@flow_ns.26" speedFactor="0.88" vaporized="collision"/>
    <tripinfo id="flow_ew.13" depart="94.00" departLane="e_t_0" departPos="4.60" departSpeed="12.71" departDelay="0.40" arrival="106.00" arrivalLane=":t_4_0" arrivalPos="16.12" arrivalSpeed="12.69" duration="12.00" routeLength="151.12" waitingTime="0.00" waitingCount="0" stopTime="0.00" timeLoss="0.11" rerouteNo="0" devices="tripinfo_flow_ew.13" vType="car@flow_ew.13" speedFactor="0.91" vaporized="collision"/>
    <tripinfo id="flow_sn.14" depart="101.00" departLane="s_t_0" departPos="4.60" departSpeed="13.52" departDelay="0.20" arrival="111.50" arrivalLane=":t_7_0" arrivalPos="5.89" arrivalSpeed="13.42" duration="10.50" routeLength="140.89" waitingTime="0.00" waitingCount="0" stopTime="0.00" timeLoss="0.08" rerouteNo="0" devices="tripinfo_flow_sn.14" vType="car@flow_sn.14" speedFactor="0.97" vaporized="collision"/>
    <tripinfo id="flow_we.14" depart="101.00" departLane="w_t_0" departPos="4.60" departSpeed="14.67" departDelay="0.20" arrival="111.50" arrivalLane=":t_10_0" arrivalPos="17.64" arrivalSpeed="14.47" duration="10.50" routeLength="152.71" waitingTime="0.00" waitingCount="0" stopTime="0.00" timeLoss="0.09" rerouteNo="0" devices="tripinfo_flow_we.14" vType="car@flow_we.14" speedFactor="1.06" vaporized="collision"/>
    <tripinfo id="flow_ns.25" depart="90.00" departLane="n_t_0" departPos="4.60" departSpeed="13.03" departDelay="0.00" arrival="113.00" arrivalLane="t_s_0" arrivalPos="139.60" arrivalSpeed="12.93" duration="23.00" routeLength="295.40" waitingTime="0.00" waitingCount="0" stopTime="0.00" timeLoss="0.23" rerouteNo="0" devices="tripinfo_flow_ns.25" vType="car@flow_ns.25" speedFactor="0.94" vaporized=""/>
    <tripinfo id="flow_we.13" depart="94.00" departLane="w_t_0" departPos="4.60" departSpeed="14.46" departDelay="0.40" arrival="115.00" arrivalLane="t_e_0" arrivalPos="139.60" arrivalSpeed="14.38" duration="21.00" routeLength="295.47" waitingTime="0.00" waitingCount="0" stopTime="0.00" timeLoss="0.38" rerouteNo="0" devices="tripinfo_flow_we.13" vType="car@flow_we.13" speedFactor="1.04" vaporized=""/>
    <tripinfo id="flow_sn.13" depart="94.00" departLane="s_t_0" departPos="4.60" departSpeed="12.60" departDelay="0.40" arrival="118.00" arrivalLane="t_n_0" arrivalPos="139.50" arrivalSpeed="12.39" duration="24.00" routeLength="295.40" waitingTime="0.00" waitingCount="0" stopTime="0.00" timeLoss="0.43" rerouteNo="0" devices="tripinfo_flow_sn.13" vType="car@flow_sn.13" speedFactor="0.91" vaporized=""/>