<?xml version="1.0" encoding="UTF-8"?>

<!-- generated on Tue Jun  1 22:53:24 2021 by Eclipse SUMO sumo Version v1_8_0+0922-7b2bbb9a60
<configuration xmlns:xsi="http://www.w3.org/2001/XMLSchema-instance" xsi:noNamespaceSchemaLocation="http://sumo.dlr.de/xsd/sumoConfiguration.xsd">

    <input>
        <net-file value="2way-single-intersection/single-intersection.net.xml"/>
        <route-files value="2way-single-intersection/single-intersection-vhvh.rou.xml"/>
    </input>

    <output>
        <tripinfo-output value="tripinfo.xml"/>
    </output>

    <time>
        <step-length value=".5"/>
    </time>

    <processing>
        <collision.action value="none"/>
        <collision.mingap-factor value="0"/>
        <time-to-teleport value="-1"/>
        <time-to-teleport.highways value="-1"/>
    </processing>

    <traci_server>
        <remote-port value="47537"/>
    </traci_server>

    <gui_only>
        <tracker-interval value="0.5"/>
    </gui_only>

</configuration>
-->

<tripinfos xmlns:xsi="http://www.w3.org/2001/XMLSchema-instance" xsi:noNamespaceSchemaLocation="http://sumo.dlr.de/xsd/tripinfo_file.xsd">
    <tripinfo id="flow_ew.0" depart="0.00" departLane="e_t_0" departPos="5.10" departSpeed="14.04" departDelay="0.00" arrival="43.00" arrivalLane="t_w_0" arrivalPos="139.67" arrivalSpeed="6.79" duration="43.00" routeLength="294.97" waitingTime="0.00" waitingCount="0" stopTime="0.00" timeLoss="0.71" rerouteNo="0" devices="tripinfo_flow_ew.0" vType="DEFAULT_VEHTYPE@flow_ew.0" speedFactor="1.01" vaporized=""/>
    <tripinfo id="flow_sn.0" depart="0.00" departLane="s_t_0" departPos="5.10" departSpeed="13.04" departDelay="0.00" arrival="45.50" arrivalLane="t_n_0" arrivalPos="139.50" arrivalSpeed="6.80" duration="45.50" routeLength="294.90" waitingTime="0.00" waitingCount="0" stopTime="0.00" timeLoss="3.24" rerouteNo="0" devices="tripinfo_flow_sn.0" vType="DEFAULT_VEHTYPE@flow_sn.0" speedFactor="0.94" vaporized=""/>
    <tripinfo id="flow_we.0" depart="0.00" departLane="w_t_0" departPos="5.10" departSpeed="15.05" departDelay="0.00" arrival="48.00" arrivalLane="t_e_0" arrivalPos="139.60" arrivalSpeed="6.88" duration="48.00" routeLength="294.97" waitingTime="1.00" waitingCount="1" stopTime="0.00" timeLoss="5.40" rerouteNo="0" devices="tripinfo_flow_we.0" vType="DEFAULT_VEHTYPE@flow_we.0" speedFactor="1.08" vaporized=""/>
    <tripinfo id="flow_ns.0" depart="0.00" departLane="n_t_0" departPos="5.10" departSpeed="14.73" departDelay="0.00" arrival="50.00" arrivalLane="t_s_0" arrivalPos="139.60" arrivalSpeed="6.83" duration="50.00" routeLength="294.90" waitingTime="3.00" waitingCount="1" stopTime="0.00" timeLoss="7.62" rerouteNo="0" devices="tripinfo_flow_ns.0" vType="DEFAULT_VEHTYPE@flow_ns.0" speedFactor="1.06" vaporized=""/>
    <tripinfo id="flow_ew.1" depart="7.50" departLane="e_t_0" departPos="5.10" departSpeed="12.32" departDelay="0.30" arrival="50.50" arrivalLane="t_w_0" arrivalPos="139.67" arrivalSpeed="6.89" duration="43.00" routeLength="294.97" waitingTime="0.00" waitingCount="0" stopTime="0.00" timeLoss="0.67" rerouteNo="0" devices="tripinfo_flow_ew.1" vType="DEFAULT_VEHTYPE@flow_ew.1" speedFactor="0.89" vaporized=""/>
    <tripinfo id="flow_sn.1" depart="7.50" departLane="s_t_0" departPos="5.10" departSpeed="14.54" departDelay="0.30" arrival="51.50" arrivalLane="t_n_0" arrivalPos="139.50" arrivalSpeed="6.88" duration="44.00" routeLength="294.90" waitingTime="0.00" waitingCount="0" stopTime="0.00" timeLoss="1.68" rerouteNo="0" devices="tripinfo_flow_sn.1" vType="DEFAULT_VEHTYPE@flow_sn.1" speedFactor="1.05" vaporized=""/>
    <tripinfo id="flow_we.1" depart="7.50" departLane="w_t_0" departPos="5.10" departSpeed="13.04" departDelay="0.30" arrival="59.50" arrivalLane="t_e_0" arrivalPos="139.60" arrivalSpeed="6.84" duration="52.00" routeLength="294.97" waitingTime="2.00" waitingCount="1" stopTime="0.00" timeLoss="9.68" rerouteNo="0" devices="tripinfo_flow_we.1" vType="DEFAULT_VEHTYPE@flow_we.1" speedFactor="0.94" vaporized=""/>
    <tripinfo id="flow_ns.1" depart="4.00" departLane="n_t_0" departPos="5.10" departSpeed="12.06" departDelay="0.40" arrival="60.00" arrivalLane="t_s_0" arrivalPos="139.60" arrivalSpeed="6.86" duration="56.00" routeLength="294.90" waitingTime="2.50" waitingCount="1" stopTime="0.00" timeLoss="13.77" rerouteNo="0" devices="tripinfo_flow_ns.1" vType="DEFAULT_VEHTYPE@flow_ns.1" speedFactor="1.03" vaporized=""/>
    <tripinfo id="flow_ew.2" depart="14.50" departLane="e_t_0" departPos="5.10" departSpeed="14.55" departDelay="0.10" arrival="64.50" arrivalLane="t_w_0" arrivalPos="139.67" arrivalSpeed="6.94" duration="50.00" routeLength="294.97" waitingTime="1.00" waitingCount="1" stopTime="0.00" timeLoss="7.40" rerouteNo="0" devices="tripinfo_flow_ew.2" vType="DEFAULT_VEHTYPE@flow_ew.2" speedFactor="1.05" vaporized=""/>
    <tripinfo id="flow_sn.2" depart="14.50" departLane="s_t_0" departPos="5.10" departSpeed="14.27" departDelay="0.10" arrival="68.00" arrivalLane="t_n_0" arrivalPos="139.50" arrivalSpeed="6.76" duration="53.50" routeLength="294.90" waitingTime="4.00" waitingCount="1" stopTime="0.00" timeLoss="10.98" rerouteNo="0" devices="tripinfo_flow_sn.2" vType="DEFAULT_VEHTYPE@flow_sn.2" speedFactor="1.03" vaporized=""/>
    <tripinfo id="flow_we.2" depart="14.50" departLane="w_t_0" departPos="5.10" departSpeed="15.61" departDelay="0.10" arrival="68.50" arrivalLane="t_e_0" arrivalPos="139.60" arrivalSpeed="6.88" duration="54.00" routeLength="294.97" waitingTime="4.00" waitingCount="1" stopTime="0.00" timeLoss="11.61" rerouteNo="0" devices="tripinfo_flow_we.2" vType="DEFAULT_VEHTYPE@flow_we.2" speedFactor="1.12" vaporized=""/>
    <tripinfo id="flow_ns.2" depart="7.50" departLane="n_t_0" departPos="5.10" departSpeed="10.62" departDelay="0.30" arrival="70.50" arrivalLane="t_s_0" arrivalPos="139.60" arrivalSpeed="6.85" duration="63.00" routeLength="294.90" waitingTime="7.50" waitingCount="2" stopTime="0.00" timeLoss="20.75" rerouteNo="0" devices="tripinfo_flow_ns.2" vType="DEFAULT_VEHTYPE@flow_ns.2" speedFactor="0.83" vaporized=""/>
    <tripinfo id="flow_sn.3" depart="22.00" departLane="s_t_0" departPos="5.10" departSpeed="12.21" departDelay="0.40" arrival="75.50" arrivalLane="t_n_0" arrivalPos="139.50" arrivalSpeed="6.96" duration="53.50" routeLength="294.90" waitingTime="3.00" waitingCount="1" stopTime="0.00" timeLoss="10.89" rerouteNo="0" devices="tripinfo_flow_sn.3" vType="DEFAULT_VEHTYPE@flow_sn.3" speedFactor="0.88" vaporized=""/>
    <tripinfo id="flow_we.3" depart="22.00" departLane="w_t_0" departPos="5.10" departSpeed="13.01" departDelay="0.40" arrival="77.50" arrivalLane="t_e_0" arrivalPos="139.60" arrivalSpeed="6.96" duration="55.50" routeLength="294.97" waitingTime="3.50" waitingCount="1" stopTime="0.00" timeLoss="13.12" rerouteNo="0" devices="tripinfo_flow_we.3" vType="DEFAULT_VEHTYPE@flow_we.3" speedFactor="0.94" vaporized=""/>
    <tripinfo id="flow_ns.3" depart="11.00" departLane="n_t_0" departPos="5.10" departSpeed="10.49" departDelay="0.20" arrival="79.50" arrivalLane="t_s_0" arrivalPos="139.60" arrivalSpeed="6.79" duration="68.50" routeLength="294.90" waitingTime="3.50" waitingCount="1" stopTime="0.00" timeLoss="26.05" rerouteNo="0" devices="tripinfo_flow_ns.3" vType="DEFAULT_VEHTYPE@flow_ns.3" speedFactor="0.86" vaporized=""/>
    <tripinfo id="flow_sn.4" depart="29.00" departLane="s_t_0" departPos="5.10" departSpeed="14.04" departDelay="0.20" arrival="84.00" arrivalLane="t_n_0" arrivalPos="139.50" arrivalSpeed="6.92" duration="55.00" routeLength="294.90" waitingTime="3.00" waitingCount="1" stopTime="0.00" timeLoss="12.82" rerouteNo="0" devices="tripinfo_flow_sn.4" vType="DEFAULT_VEHTYPE@flow_sn.4" speedFactor="1.01" vaporized=""/>
    <tripinfo id="flow_we.4" depart="29.00" departLane="w_t_0" departPos="5.10" departSpeed="12.37" departDelay="0.20" arrival="86.00" arrivalLane="t_e_0" arrivalPos="139.60" arrivalSpeed="7.00" duration="57.00" routeLength="294.97" waitingTime="3.00" waitingCount="2" stopTime="0.00" timeLoss="14.68" rerouteNo="0" devices="tripinfo_flow_we.4" vType="DEFAULT_VEHTYPE@flow_we.4" speedFactor="0.89" vaporized=""/>
    <tripinfo id="flow_ns.4" depart="14.50" departLane="n_t_0" departPos="5.10" departSpeed="10.55" departDelay="0.10" arrival="89.50" arrivalLane="t_s_0" arrivalPos="139.60" arrivalSpeed="6.75" duration="75.00" routeLength="294.90" waitingTime="3.00" waitingCount="1" stopTime="0.00" timeLoss="32.69" rerouteNo="0" devices="tripinfo_flow_ns.4" vType="DEFAULT_VEHTYPE@flow_ns.4" speedFactor="1.09" vaporized=""/>
    <tripinfo id="flow_sn.5" depart="36.00" departLane="s_t_0" departPos="5.10" departSpeed="12.75" departDelay="0.00" arrival="93.00" arrivalLane="t_n_0" arrivalPos="139.50" arrivalSpeed="6.86" duration="57.00" routeLength="294.90" waitingTime="3.00" waitingCount="1" stopTime="0.00" timeLoss="14.82" rerouteNo="0" devices="tripinfo_flow_sn.5" vType="DEFAULT_VEHTYPE@flow_sn.5" speedFactor="0.92" vaporized=""/>
    <tripinfo id="flow_we.5" depart="36.00" departLane="w_t_0" departPos="5.10" departSpeed="15.73" departDelay="0.00" arrival="96.00" arrivalLane="t_e_0" arrivalPos="139.60" arrivalSpeed="6.94" duration="60.00" routeLength="294.97" waitingTime="4.50" waitingCount="2" stopTime="0.00" timeLoss="17.58" rerouteNo="0" devices="tripinfo_flow_we.5" vType="DEFAULT_VEHTYPE@flow_we.5" speedFactor="1.13" vaporized=""/>
    <tripinfo id="flow_sn.6" depart="43.50" departLane="s_t_0" departPos="5.10" departSpeed="16.05" departDelay="0.30" arrival="102.50" arrivalLane="t_n_0" arrivalPos="139.50" arrivalSpeed="6.85" duration="59.00" routeLength="294.90" waitingTime="4.50" waitingCount="2" stopTime="0.00" timeLoss="16.83" rerouteNo="0" devices="tripinfo_flow_sn.6" vType="DEFAULT_VEHTYPE@flow_sn.6" speedFactor="1.15" vaporized=""/>
    <tripinfo id="flow_ns.5" depart="18.00" departLane="n_t_0" departPos="5.10" departSpeed="10.37" departDelay="0.00" arrival="107.00" arrivalLane="t_s_0" arrivalPos="139.60" arrivalSpeed="6.83" duration="89.00" routeLength="294.90" waitingTime="5.00" waitingCount="6" stopTime="0.00" timeLoss="46.67" rerouteNo="0" devices="tripinfo_flow_ns.5" vType="DEFAULT_VEHTYPE@flow_ns.5" speedFactor="0.99" vaporized=""/>
    <tripinfo id="flow_ns.6" depart="22.00" departLane="n_t_0" departPos="5.10" departSpeed="11.50" departDelay="0.40" arrival="109.00" arrivalLane="t_s_1" arrivalPos="139.60" arrivalSpeed="6.80" duration="87.00" routeLength="294.90" waitingTime="1.00" waitingCount="1" stopTime="0.00" timeLoss="44.76" rerouteNo="0" devices="tripinfo_flow_ns.6" vType="DEFAULT_VEHTYPE@flow_ns.6" speedFactor="0.93" vaporized=""/>
    <tripinfo id="flow_we.6" depart="43.50" departLane="w_t_0" departPos="5.10" departSpeed="16.29" departDelay="0.30" arrival="116.00" arrivalLane="t_e_0" arrivalPos="139.60" arrivalSpeed="6.91" duration="72.50" routeLength="294.97" waitingTime="15.00" waitingCount="2" stopTime="0.00" timeLoss="30.13" rerouteNo="0" devices="tripinfo_flow_we.6" vType="DEFAULT_VEHTYPE@flow_we.6" speedFactor="1.17" vaporized=""/>
    <tripinfo id="flow_ns.7" depart="25.50" departLane="n_t_0" departPos="5.10" departSpeed="10.43" departDelay="0.30" arrival="144.50" arrivalLane="t_s_0" arrivalPos="139.60" arrivalSpeed="6.84" duration="119.00" routeLength="294.90" waitingTime="17.00" waitingCount="7" stopTime="0.00" timeLoss="76.75" rerouteNo="0" devices="tripinfo_flow_ns.7" vType="DEFAULT_VEHTYPE@flow_ns.7" speedFactor="1.16" vaporized=""/>
    <tripinfo id="flow_ns.8" depart="29.00" departLane="n_t_0" departPos="5.10" departSpeed="10.48" departDelay="0.20" arrival="147.00" arrivalLane="t_s_0" arrivalPos="139.60" arrivalSpeed="6.92" duration="118.00" routeLength="294.90" waitingTime="12.50" waitingCount="2" stopTime="0.00" timeLoss="75.47" rerouteNo="0" devices="tripinfo_flow_ns.8" vType="DEFAULT_VEHTYPE@flow_ns.8" speedFactor="1.02" vaporized=""/>
    <tripinfo id="flow_ns.9" depart="32.50" departLane="n_t_0" departPos="5.10" departSpeed="10.45" departDelay="0.10" arrival="149.50" arrivalLane="t_s_0" arrivalPos="139.60" arrivalSpeed="6.84" duration="117.00" routeLength="294.90" waitingTime="10.50" waitingCount="2" stopTime="0.00" timeLoss="74.85" rerouteNo="0" devices="tripinfo_flow_ns.9" vType="DEFAULT_VEHTYPE@flow_ns.9" speedFactor="0.83" vaporized=""/>
    <tripinfo id="flow_ns.10" depart="36.00" departLane="n_t_0" departPos="5.10" departSpeed="10.50" departDelay="0.00" arrival="152.00" arrivalLane="t_s_0" arrivalPos="139.60" arrivalSpeed="6.82" duration="116.00" routeLength="294.90" waitingTime="10.00" waitingCount="2" stopTime="0.00" timeLoss="73.50" rerouteNo="0" devices="tripinfo_flow_ns.10" vType="DEFAULT_VEHTYPE@flow_ns.10" speedFactor="0.87" vaporized=""/>
    <tripinfo id="flow_ns.11" depart="40.00" departLane="n_t_0" departPos="5.10" departSpeed="11.63" departDelay="0.40" arrival="154.50" arrivalLane="t_s_0" arrivalPos="139.60" arrivalSpeed="6.94" duration="114.50" routeLength="294.90" waitingTime="9.00" waitingCount="2" stopTime="0.00" timeLoss="72.08" rerouteNo="0" devices="tripinfo_flow_ns.11" vType="DEFAULT_VEHTYPE@flow_ns.11" speedFactor="0.93" vaporized=""/>
    <tripinfo id="flow_ns.12" depart="43.50" departLane="n_t_0" departPos="5.10" departSpeed="10.50" departDelay="0.30" arrival="157.50" arrivalLane="t_s_0" arrivalPos="139.60" arrivalSpeed="6.89" duration="114.00" routeLength="294.90" waitingTime="8.00" waitingCount="2" stopTime="0.00" timeLoss="71.71" rerouteNo="0" devices="tripinfo_flow_ns.12" vType="DEFAULT_VEHTYPE@flow_ns.12" speedFactor="1.18" vaporized=""/>
    <tripinfo id="flow_ns.13" depart="47.00" departLane="n_t_0" departPos="5.10" departSpeed="10.43" departDelay="0.20" arrival="160.50" arrivalLane="t_s_0" arrivalPos="139.60" arrivalSpeed="6.77" duration="113.50" routeLength="294.90" waitingTime="7.00" waitingCount="2" stopTime="0.00" timeLoss="71.00" rerouteNo="0" devices="tripinfo_flow_ns.13" vType="DEFAULT_VEHTYPE@flow_ns.13" speedFactor="0.99" vaporized=""/>
    <tripinfo id="flow_ns.14" depart="50.50" departLane="n_t_0" departPos="5.10" departSpeed="10.51" departDelay="0.10" arrival="164.00" arrivalLane="t_s_0" arrivalPos="139.60" arrivalSpeed="6.97" duration="113.50" routeLength="294.90" waitingTime="5.00" waitingCount="2" stopTime="0.00" timeLoss="70.90" rerouteNo="0" devices="tripinfo_flow_ns.14" vType="DEFAULT_VEHTYPE@flow_ns.14" speedFactor="1.02" vaporized=""/>
    <tripinfo id="flow_ns.15" depart="54.00" departLane="n_t_0" departPos="5.10" departSpeed="10.52" departDelay="0.00" arrival="166.00" arrivalLane="t_s_0" arrivalPos="139.60" arrivalSpeed="6.87" duration="112.00" routeLength="294.90" waitingTime="4.50" waitingCount="1" stopTime="0.00" timeLoss="69.87" rerouteNo="0" devices="tripinfo_flow_ns.15" vType="DEFAULT_VEHTYPE@flow_ns.15" speedFactor="0.90" vaporized=""/>
    <tripinfo id="flow_ns.16" depart="58.00" departLane="n_t_0" departPos="5.10" departSpeed="11.58" departDelay="0.40" arrival="170.00" arrivalLane="t_s_0" arrivalPos="139.60" arrivalSpeed="6.89" duration="112.00" routeLength="294.90" waitingTime="4.00" waitingCount="1" stopTime="0.00" timeLoss="69.42" rerouteNo="0" devices="tripinfo_flow_ns.16" vType="DEFAULT_VEHTYPE@flow_ns.16" speedFactor="1.03" vaporized=""/>
    <tripinfo id="flow_ns.17" depart="61.50" departLane="n_t_0" departPos="5.10" departSpeed="10.59" departDelay="0.30" arrival="172.00" arrivalLane="t_s_0" arrivalPos="139.60" arrivalSpeed="6.94" duration="110.50" routeLength="294.90" waitingTime="3.50" waitingCount="1" stopTime="0.00" timeLoss="68.33" rerouteNo="0" devices="tripinfo_flow_ns.17" vType="DEFAULT_VEHTYPE@flow_ns.17" speedFactor="1.04" vaporized=""/>
    <tripinfo id="flow_ns.18" depart="65.00" departLane="n_t_0" departPos="5.10" departSpeed="10.56" departDelay="0.20" arrival="176.00" arrivalLane="t_s_0" arrivalPos="139.60" arrivalSpeed="6.90" duration="111.00" routeLength="294.90" waitingTime="3.50" waitingCount="1" stopTime="0.00" timeLoss="68.55" rerouteNo="0" devices="tripinfo_flow_ns.18" vType="DEFAULT_VEHTYPE@flow_ns.18" speedFactor="1.09" vaporized=""/>
    <tripinfo id="flow_ns.19" depart="68.50" departLane="n_t_0" departPos="5.10" departSpeed="9.29" departDelay="0.10" arrival="178.00" arrivalLane="t_s_0" arrivalPos="139.60" arrivalSpeed="6.96" duration="109.50" routeLength="294.90" waitingTime="3.00" waitingCount="1" stopTime="0.00" timeLoss="67.24" rerouteNo="0" devices="tripinfo_flow_ns.19" vType="DEFAULT_VEHTYPE@flow_ns.19" speedFactor="0.85" vaporized=""/>
    <tripinfo id="flow_ns.20" depart="72.00" departLane="n_t_0" departPos="5.10" departSpeed="7.46" departDelay="0.00" arrival="180.50" arrivalLane="t_s_0" arrivalPos="139.60" arrivalSpeed="6.99" duration="108.50" routeLength="294.90" waitingTime="2.50" waitingCount="1" stopTime="0.00" timeLoss="66.32" rerouteNo="0" devices="tripinfo_flow_ns.20" vType="DEFAULT_VEHTYPE@flow_ns.20" speedFactor="0.85" vaporized=""/>
    <tripinfo id="flow_ns.21" depart="76.00" departLane="n_t_0" departPos="5.10" departSpeed="5.30" departDelay="0.40" arrival="183.00" arrivalLane="t_s_0" arrivalPos="139.60" arrivalSpeed="6.93" duration="107.00" routeLength="294.90" waitingTime="2.50" waitingCount="1" stopTime="0.00" timeLoss="64.65" rerouteNo="0" devices="tripinfo_flow_ns.21" vType="DEFAULT_VEHTYPE@flow_ns.21" speedFactor="1.00" vaporized=""/>
    <tripinfo id="flow_ns.22" depart="79.50" departLane="n_t_0" departPos="5.10" departSpeed="1.81" departDelay="0.30" arrival="186.50" arrivalLane="t_s_0" arrivalPos="139.60" arrivalSpeed="6.85" duration="107.00" routeLength="294.90" waitingTime="1.00" waitingCount="2" stopTime="0.00" timeLoss="64.89" rerouteNo="0" devices="tripinfo_flow_ns.22" vType="DEFAULT_VEHTYPE@flow_ns.22" speedFactor="1.00" vaporized=""/>
    <tripinfo id="flow_ns.23" depart="85.00" departLane="n_t_0" departPos="5.10" departSpeed="0.10" departDelay="2.20" arrival="189.50" arrivalLane="t_s_0" arrivalPos="139.60" arrivalSpeed="6.86" duration="104.50" routeLength="294.90" waitingTime="0.50" waitingCount="1" stopTime="0.00" timeLoss="62.02" rerouteNo="0" devices="tripinfo_flow_ns.23" vType="DEFAULT_VEHTYPE@flow_ns.23" speedFactor="0.97" vaporized=""/>
    <tripinfo id="flow_ns.24" depart="94.00" departLane="n_t_0" departPos="5.10" departSpeed="0.23" departDelay="7.60" arrival="192.50" arrivalLane="t_s_0" arrivalPos="139.60" arrivalSpeed="6.89" duration="98.50" routeLength="294.90" waitingTime="0.00" waitingCount="0" stopTime="0.00" timeLoss="56.16" rerouteNo="0" devices="tripinfo_flow_ns.24" vType="DEFAULT_VEHTYPE@flow_ns.24" speedFactor="1.08" vaporized=""/>
    <tripinfo id="flow_ns.25" depart="106.50" departLane="n_t_0" departPos="5.10" departSpeed="0.26" departDelay="16.50" arrival="195.50" arrivalLane="t_s_0" arrivalPos="139.60" arrivalSpeed="6.81" duration="89.00" routeLength="294.90" waitingTime="0.00" waitingCount="0" stopTime="0.00" timeLoss="46.69" rerouteNo="0" devices="tripinfo_flow_ns.25" vType="DEFAULT_VEHTYPE@flow_ns.25" speedFactor="0.94" vaporized=""/>
    <tripinfo id="flow_ns.26" depart="120.50" departLane="n_t_0" departPos="5.10" departSpeed="0.10" departDelay="26.90" arrival="198.50" arrivalLane="t_s_0" arrivalPos="139.60" arrivalSpeed="6.92" duration="78.00" routeLength="294.90" waitingTime="0.50" waitingCount="1" stopTime="0.00" timeLoss="35.55" rerouteNo="0" devices="tripinfo_flow_ns.26" vType="DEFAULT_VEHTYPE@flow_ns.26" speedFactor="0.88" vaporized=""/>
    <tripinfo id="flow_ns.27" depart="140.00" departLane="n_t_0" departPos="5.10" departSpeed="0.12" departDelay="42.80" arrival="201.50" arrivalLane="t_s_0" arrivalPos="139.60" arrivalSpeed="6.79" duration="61.50" routeLength="294.90" waitingTime="0.00" waitingCount="0" stopTime="0.00" timeLoss="19.25" rerouteNo="0" devices="tripinfo_flow_ns.27" vType="DEFAULT_VEHTYPE@flow_ns.27" speedFactor="1.02" vaporized=""/>
    <tripinfo id="flow_ns.28" depart="145.00" departLane="n_t_0" departPos="5.10" departSpeed="2.33" departDelay="44.20" arrival="204.50" arrivalLane="t_s_0" arrivalPos="139.60" arrivalSpeed="6.89" duration="59.50" routeLength="294.90" waitingTime="0.00" waitingCount="0" stopTime="0.00" timeLoss="16.91" rerouteNo="0" devices="tripinfo_flow_ns.28" vType="DEFAULT_VEHTYPE@flow_ns.28" speedFactor="1.02" vaporized=""/>
    <tripinfo id="flow_ns.29" depart="147.50" departLane="n_t_0" departPos="5.10" departSpeed="0.65" departDelay="43.10" arrival="208.00" arrivalLane="t_s_0" arrivalPos="139.60" arrivalSpeed="6.76" duration="60.50" routeLength="294.90" waitingTime="0.00" waitingCount="0" stopTime="0.00" timeLoss="17.92" rerouteNo="0" devices="tripinfo_flow_ns.29" vType="DEFAULT_VEHTYPE@flow_ns.29" speedFactor="0.96" vaporized=""/>
    <tripinfo id="flow_ns.30" depart="151.50" departLane="n_t_0" departPos="5.10" departSpeed="1.21" departDelay="43.50" arrival="210.00" arrivalLane="t_s_0" arrivalPos="139.60" arrivalSpeed="6.91" duration="58.50" routeLength="294.90" waitingTime="0.00" waitingCount="0" stopTime="0.00" timeLoss="16.36" rerouteNo="0" devices="tripinfo_flow_ns.30" vType="DEFAULT_VEHTYPE@flow_ns.30" speedFactor="0.98" vaporized=""/>
    <tripinfo id="flow_ns.31" depart="155.00" departLane="n_t_0" departPos="5.10" departSpeed="0.58" departDelay="43.40" arrival="213.50" arrivalLane="t_s_0" arrivalPos="139.60" arrivalSpeed="6.96" duration="58.50" routeLength="294.90" waitingTime="0.00" waitingCount="0" stopTime="0.00" timeLoss="16.19" rerouteNo="0" devices="tripinfo_flow_ns.31" vType="DEFAULT_VEHTYPE@flow_ns.31" speedFactor="1.09" vaporized=""/>
    <tripinfo id="flow_ns.32" depart="159.50" departLane="n_t_0" departPos="5.10" departSpeed="1.79" departDelay="44.30" arrival="216.50" arrivalLane="t_s_0" arrivalPos="139.60" arrivalSpeed="6.81" duration="57.00" routeLength="294.90" waitingTime="0.00" waitingCount="0" stopTime="0.00" timeLoss="14.44" rerouteNo="0" devices="tripinfo_flow_ns.32" vType="DEFAULT_VEHTYPE@flow_ns.32" speedFactor="1.03" vaporized=""/>
    <tripinfo id="flow_ns.33" depart="162.50" departLane="n_t_0" departPos="5.10" departSpeed="0.96" departDelay="43.70" arrival="219.50" arrivalLane="t_s_0" arrivalPos="139.60" arrivalSpeed="6.92" duration="57.00" routeLength="294.90" waitingTime="0.00" waitingCount="0" stopTime="0.00" timeLoss="14.67" rerouteNo="0" devices="tripinfo_flow_ns.33" vType="DEFAULT_VEHTYPE@flow_ns.33" speedFactor="1.15" vaporized=""/>
    <tripinfo id="flow_ns.34" depart="166.50" departLane="n_t_0" departPos="5.10" departSpeed="2.08" departDelay="44.10" arrival="222.50" arrivalLane="t_s_0" arrivalPos="139.60" arrivalSpeed="6.97" duration="56.00" routeLength="294.90" waitingTime="0.00" waitingCount="0" stopTime="0.00" timeLoss="13.56" rerouteNo="0" devices="tripinfo_flow_ns.34" vType="DEFAULT_VEHTYPE@flow_ns.34" speedFactor="0.98" vaporized=""/>
    <tripinfo id="flow_ns.35" depart="169.50" departLane="n_t_0" departPos="5.10" departSpeed="1.58" departDelay="43.50" arrival="225.50" arrivalLane="t_s_0" arrivalPos="139.60" arrivalSpeed="6.75" duration="56.00" routeLength="294.90" waitingTime="0.00" waitingCount="0" stopTime="0.00" timeLoss="13.67" rerouteNo="0" devices="tripinfo_flow_ns.35" vType="DEFAULT_VEHTYPE@flow_ns.35" speedFactor="1.02" vaporized=""/>
    <tripinfo id="flow_ns.36" depart="173.00" departLane="n_t_0" departPos="5.10" departSpeed="2.52" departDelay="43.40" arrival="228.50" arrivalLane="t_s_0" arrivalPos="139.60" arrivalSpeed="6.90" duration="55.50" routeLength="294.90" waitingTime="0.00" waitingCount="0" stopTime="0.00" timeLoss="13.02" rerouteNo="0" devices="tripinfo_flow_ns.36" vType="DEFAULT_VEHTYPE@flow_ns.36" speedFactor="1.02" vaporized=""/>
    <tripinfo id="flow_ns.37" depart="175.50" departLane="n_t_0" departPos="5.10" departSpeed="1.84" departDelay="42.30" arrival="231.50" arrivalLane="t_s_0" arrivalPos="139.60" arrivalSpeed="6.86" duration="56.00" routeLength="294.90" waitingTime="0.00" waitingCount="0" stopTime="0.00" timeLoss="13.60" rerouteNo="0" devices="tripinfo_flow_ns.37" vType="DEFAULT_VEHTYPE@flow_ns.37" speedFactor="1.09" vaporized=""/>
    <tripinfo id="flow_ns.38" depart="179.00" departLane="n_t_0" departPos="5.10" departSpeed="2.35" departDelay="42.20" arrival="234.50" arrivalLane="t_s_0" arrivalPos="139.60" arrivalSpeed="7.00" duration="55.50" routeLength="294.90" waitingTime="0.00" waitingCount="0" stopTime="0.00" timeLoss="12.99" rerouteNo="0" devices="tripinfo_flow_ns.38" vType="DEFAULT_VEHTYPE@flow_ns.38" speedFactor="1.06" vaporized=""/>
    <tripinfo id="flow_ns.39" depart="181.50" departLane="n_t_0" departPos="5.10" departSpeed="0.77" departDelay="41.10" arrival="237.50" arrivalLane="t_s_0" arrivalPos="139.60" arrivalSpeed="6.99" duration="56.00" routeLength="294.90" waitingTime="0.00" waitingCount="0" stopTime="0.00" timeLoss="13.67" rerouteNo="0" devices="tripinfo_flow_ns.39" vType="DEFAULT_VEHTYPE@flow_ns.39" speedFactor="1.10" vaporized=""/>
    <tripinfo id="flow_ns.40" depart="185.50" departLane="n_t_0" departPos="5.10" departSpeed="0.49" departDelay="41.50" arrival="240.50" arrivalLane="t_s_0" arrivalPos="139.60" arrivalSpeed="6.78" duration="55.00" routeLength="294.90" waitingTime="0.00" waitingCount="0" stopTime="0.00" timeLoss="12.40" rerouteNo="0" devices="tripinfo_flow_ns.40" vType="DEFAULT_VEHTYPE@flow_ns.40" speedFactor="1.07" vaporized=""/>
    <tripinfo id="flow_ns.41" depart="190.00" departLane="n_t_0" departPos="5.10" departSpeed="1.77" departDelay="42.40" arrival="243.50" arrivalLane="t_s_0" arrivalPos="139.60" arrivalSpeed="6.94" duration="53.50" routeLength="294.90" waitingTime="0.00" waitingCount="0" stopTime="0.00" timeLoss="11.23" rerouteNo="0" devices="tripinfo_flow_ns.41" vType="DEFAULT_VEHTYPE@flow_ns.41" speedFactor="0.89" vaporized=""/>
    <tripinfo id="flow_ns.42" depart="193.00" departLane="n_t_0" departPos="5.10" departSpeed="1.31" departDelay="41.80" arrival="246.50" arrivalLane="t_s_0" arrivalPos="139.60" arrivalSpeed="6.98" duration="53.50" routeLength="294.90" waitingTime="0.00" waitingCount="0" stopTime="0.00" timeLoss="11.10" rerouteNo="0" devices="tripinfo_flow_ns.42" vType="DEFAULT_VEHTYPE@flow_ns.42" speedFactor="1.07" vaporized=""/>
    <tripinfo id="flow_ns.43" depart="196.50" departLane="n_t_0" departPos="5.10" departSpeed="2.27" departDelay="41.70" arrival="249.50" arrivalLane="t_s_0" arrivalPos="139.60" arrivalSpeed="6.86" duration="53.00" routeLength="294.90" waitingTime="0.00" waitingCount="0" stopTime="0.00" timeLoss="10.54" rerouteNo="0" devices="tripinfo_flow_ns.43" vType="DEFAULT_VEHTYPE@flow_ns.43" speedFactor="0.96" vaporized=""/>
    <tripinfo id="flow_ns.44" depart="199.50" departLane="n_t_0" departPos="5.10" departSpeed="2.44" departDelay="41.10" arrival="252.50" arrivalLane="t_s_0" arrivalPos="139.60" arrivalSpeed="6.99" duration="53.00" routeLength="294.90" waitingTime="0.00" waitingCount="0" stopTime="0.00" timeLoss="10.75" rerouteNo="0" devices="tripinfo_flow_ns.44" vType="DEFAULT_VEHTYPE@flow_ns.44" speedFactor="0.93" vaporized=""/>
    <tripinfo id="flow_ns.45" depart="202.00" departLane="n_t_0" departPos="5.10" departSpeed="1.45" departDelay="40.00" arrival="255.00" arrivalLane="t_s_0" arrivalPos="139.60" arrivalSpeed="6.79" duration="53.00" routeLength="294.90" waitingTime="0.00" waitingCount="0" stopTime="0.00" timeLoss="10.80" rerouteNo="0" devices="tripinfo_flow_ns.45" vType="DEFAULT_VEHTYPE@flow_ns.45" speedFactor="1.10" vaporized=""/>
    <tripinfo id="flow_ns.46" depart="205.00" departLane="n_t_0" departPos="5.10" departSpeed="0.69" departDelay="39.40" arrival="257.50" arrivalLane="t_s_0" arrivalPos="139.60" arrivalSpeed="6.90" duration="52.50" routeLength="294.90" waitingTime="0.00" waitingCount="0" stopTime="0.00" timeLoss="10.26" rerouteNo="0" devices="tripinfo_flow_ns.46" vType="DEFAULT_VEHTYPE@flow_ns.46" speedFactor="0.92" vaporized=""/>
    <tripinfo id="flow_ns.47" depart="209.00" departLane="n_t_0" departPos="5.10" departSpeed="1.58" departDelay="39.80" arrival="261.50" arrivalLane="t_s_0" arrivalPos="139.60" arrivalSpeed="6.90" duration="52.50" routeLength="294.90" waitingTime="0.00" waitingCount="0" stopTime="0.00" timeLoss="9.94" rerouteNo="0" devices="tripinfo_flow_ns.47" vType="DEFAULT_VEHTYPE@flow_ns.47" speedFactor="1.07" vaporized=""/>
    <tripinfo id="flow_ns.48" depart="212.50" departLane="n_t_0" departPos="5.10" departSpeed="1.73" departDelay="39.70" arrival="264.00" arrivalLane="t_s_0" arrivalPos="139.60" arrivalSpeed="6.79" duration="51.50" routeLength="294.90" waitingTime="0.00" waitingCount="0" stopTime="0.00" timeLoss="8.98" rerouteNo="0" devices="tripinfo_flow_ns.48" vType="DEFAULT_VEHTYPE@flow_ns.48" speedFactor="0.94" vaporized=""/>
    <tripinfo id="flow_ns.49" depart="216.00" departLane="n_t_0" departPos="5.10" departSpeed="2.36" departDelay="39.60" arrival="267.00" arrivalLane="t_s_0" arrivalPos="139.60" arrivalSpeed="6.88" duration="51.00" routeLength="294.90" waitingTime="0.00" waitingCount="0" stopTime="0.00" timeLoss="8.85" rerouteNo="0" devices="tripinfo_flow_ns.49" vType="DEFAULT_VEHTYPE@flow_ns.49" speedFactor="1.06" vaporized=""/>
    <tripinfo id="flow_ns.50" depart="219.00" departLane="n_t_0" departPos="5.10" departSpeed="2.57" departDelay="39.00" arrival="270.00" arrivalLane="t_s_0" arrivalPos="139.60" arrivalSpeed="6.98" duration="51.00" routeLength="294.90" waitingTime="0.00" waitingCount="0" stopTime="0.00" timeLoss="8.41" rerouteNo="0" devices="tripinfo_flow_ns.50" vType="DEFAULT_VEHTYPE@flow_ns.50" speedFactor="1.15" vaporized=""/>
    <tripinfo id="flow_ns.51" depart="221.50" departLane="n_t_0" departPos="5.10" departSpeed="1.26" departDelay="37.90" arrival="273.00" arrivalLane="t_s_0" arrivalPos="139.60" arrivalSpeed="6.93" duration="51.50" routeLength="294.90" waitingTime="0.00" waitingCount="0" stopTime="0.00" timeLoss="9.17" rerouteNo="0" devices="tripinfo_flow_ns.51" vType="DEFAULT_VEHTYPE@flow_ns.51" speedFactor="1.01" vaporized=""/>