<?xml version="1.0" encoding="UTF-8"?>

<!-- generated on 2021-06-04 17:49:36 by Eclipse SUMO GUI Version 1.9.2
<configuration xmlns:xsi="http://www.w3.org/2001/XMLSchema-instance" xsi:noNamespaceSchemaLocation="http://sumo.dlr.de/xsd/sumoConfiguration.xsd">

    <input>
        <net-file value="2way-single-intersection/single-intersection.net.xml"/>
        <route-files value="2way-single-intersection/single-intersection-vhvh.rou.xml"/>
    </input>

    <output>
        <tripinfo-output value="tripinfo.xml"/>
    </output>

    <time>
        <step-length value=".5"/>
    </time>

    <processing>
        <collision.action value="none"/>
        <collision.mingap-factor value="0"/>
        <time-to-teleport value="-1"/>
        <time-to-teleport.highways value="-1"/>
    </processing>

    <traci_server>
        <remote-port value="53309"/>
    </traci_server>

    <gui_only>
        <tracker-interval value="0.5"/>
    </gui_only>

</configuration>
-->

<tripinfos xmlns:xsi="http://www.w3.org/2001/XMLSchema-instance" xsi:noNamespaceSchemaLocation="http://sumo.dlr.de/xsd/tripinfo_file.xsd">
    <tripinfo id="flow_ns.0" depart="0.00" departLane="n_t_0" departPos="5.10" departSpeed="14.73" departDelay="0.00" arrival="20.50" arrivalLane="t_s_0" arrivalPos="139.60" arrivalSpeed="14.54" duration="20.50" routeLength="294.90" waitingTime="0.00" waitingCount="0" stopTime="0.00" timeLoss="0.46" rerouteNo="0" devices="tripinfo_flow_ns.0" vType="DEFAULT_VEHTYPE@flow_ns.0" speedFactor="1.06" vaporized=""/>
    <tripinfo id="flow_we.0" depart="0.00" departLane="w_t_0" departPos="5.10" departSpeed="15.05" departDelay="0.00" arrival="21.00" arrivalLane="t_e_0" arrivalPos="139.60" arrivalSpeed="14.94" duration="21.00" routeLength="294.97" waitingTime="0.00" waitingCount="0" stopTime="0.00" timeLoss="1.21" rerouteNo="0" devices="tripinfo_flow_we.0" vType="DEFAULT_VEHTYPE@flow_we.0" speedFactor="1.08" vaporized=""/>
    <tripinfo id="flow_ew.0" depart="0.00" departLane="e_t_0" departPos="5.10" departSpeed="14.04" departDelay="0.00" arrival="21.50" arrivalLane="t_w_0" arrivalPos="139.67" arrivalSpeed="13.95" duration="21.50" routeLength="294.97" waitingTime="0.00" waitingCount="0" stopTime="0.00" timeLoss="0.42" rerouteNo="0" devices="tripinfo_flow_ew.0" vType="DEFAULT_VEHTYPE@flow_ew.0" speedFactor="1.01" vaporized=""/>
    <tripinfo id="flow_sn.0" depart="0.00" departLane="s_t_0" departPos="5.10" departSpeed="13.04" departDelay="0.00" arrival="24.00" arrivalLane="t_n_0" arrivalPos="139.50" arrivalSpeed="12.94" duration="24.00" routeLength="294.90" waitingTime="0.00" waitingCount="0" stopTime="0.00" timeLoss="1.35" rerouteNo="0" devices="tripinfo_flow_sn.0" vType="DEFAULT_VEHTYPE@flow_sn.0" speedFactor="0.94" vaporized=""/>
    <tripinfo id="flow_ns.1" depart="4.00" departLane="n_t_0" departPos="5.10" departSpeed="14.32" departDelay="0.40" arrival="26.00" arrivalLane="t_s_0" arrivalPos="139.60" arrivalSpeed="14.15" duration="22.00" routeLength="294.90" waitingTime="0.00" waitingCount="0" stopTime="0.00" timeLoss="1.28" rerouteNo="0" devices="tripinfo_flow_ns.1" vType="DEFAULT_VEHTYPE@flow_ns.1" speedFactor="1.03" vaporized=""/>
    <tripinfo id="flow_sn.1" depart="7.50" departLane="s_t_0" departPos="5.10" departSpeed="14.54" departDelay="0.30" arrival="28.50" arrivalLane="t_n_0" arrivalPos="139.50" arrivalSpeed="14.30" duration="21.00" routeLength="294.90" waitingTime="0.00" waitingCount="0" stopTime="0.00" timeLoss="0.47" rerouteNo="0" devices="tripinfo_flow_sn.1" vType="DEFAULT_VEHTYPE@flow_sn.1" speedFactor="1.05" vaporized=""/>
    <tripinfo id="flow_we.1" depart="7.50" departLane="w_t_0" departPos="5.10" departSpeed="13.04" departDelay="0.30" arrival="32.00" arrivalLane="t_e_0" arrivalPos="139.60" arrivalSpeed="12.79" duration="24.50" routeLength="294.97" waitingTime="0.00" waitingCount="0" stopTime="0.00" timeLoss="1.63" rerouteNo="0" devices="tripinfo_flow_we.1" vType="DEFAULT_VEHTYPE@flow_we.1" speedFactor="0.94" vaporized=""/>
    <tripinfo id="flow_ew.1" depart="7.50" departLane="e_t_0" departPos="5.10" departSpeed="12.32" departDelay="0.30" arrival="33.00" arrivalLane="t_w_0" arrivalPos="139.67" arrivalSpeed="12.26" duration="25.50" routeLength="294.97" waitingTime="0.00" waitingCount="0" stopTime="0.00" timeLoss="1.40" rerouteNo="0" devices="tripinfo_flow_ew.1" vType="DEFAULT_VEHTYPE@flow_ew.1" speedFactor="0.89" vaporized=""/>
    <tripinfo id="flow_sn.2" depart="14.50" departLane="s_t_0" departPos="5.10" departSpeed="14.27" departDelay="0.10" arrival="37.50" arrivalLane="t_n_0" arrivalPos="139.50" arrivalSpeed="14.06" duration="23.00" routeLength="294.90" waitingTime="0.00" waitingCount="0" stopTime="0.00" timeLoss="2.31" rerouteNo="0" devices="tripinfo_flow_sn.2" vType="DEFAULT_VEHTYPE@flow_sn.2" speedFactor="1.03" vaporized=""/>
    <tripinfo id="flow_ns.2" depart="7.50" departLane="n_t_0" departPos="5.10" departSpeed="11.55" departDelay="0.30" arrival="39.50" arrivalLane="t_s_0" arrivalPos="139.60" arrivalSpeed="11.48" duration="32.00" routeLength="294.90" waitingTime="0.00" waitingCount="0" stopTime="0.00" timeLoss="6.40" rerouteNo="0" devices="tripinfo_flow_ns.2" vType="DEFAULT_VEHTYPE@flow_ns.2" speedFactor="0.83" vaporized=""/>
    <tripinfo id="flow_ew.2" depart="14.50" departLane="e_t_0" departPos="5.10" departSpeed="14.55" departDelay="0.10" arrival="40.00" arrivalLane="t_w_0" arrivalPos="139.67" arrivalSpeed="14.49" duration="25.50" routeLength="294.97" waitingTime="0.00" waitingCount="0" stopTime="0.00" timeLoss="5.13" rerouteNo="0" devices="tripinfo_flow_ew.2" vType="DEFAULT_VEHTYPE@flow_ew.2" speedFactor="1.05" vaporized=""/>
    <tripinfo id="flow_ew.3" depart="22.00" departLane="e_t_0" departPos="5.10" departSpeed="13.09" departDelay="0.40" arrival="70.50" arrivalLane="t_w_0" arrivalPos="139.67" arrivalSpeed="12.97" duration="48.50" routeLength="294.97" waitingTime="17.00" waitingCount="1" stopTime="0.00" timeLoss="25.84" rerouteNo="0" devices="tripinfo_flow_ew.3" vType="DEFAULT_VEHTYPE@flow_ew.3" speedFactor="0.94" vaporized=""/>
    <tripinfo id="flow_ns.3" depart="11.00" departLane="n_t_0" departPos="5.10" departSpeed="11.91" departDelay="0.20" arrival="71.50" arrivalLane="t_s_0" arrivalPos="139.60" arrivalSpeed="11.76" duration="60.50" routeLength="294.90" waitingTime="13.50" waitingCount="16" stopTime="0.00" timeLoss="35.44" rerouteNo="0" devices="tripinfo_flow_ns.3" vType="DEFAULT_VEHTYPE@flow_ns.3" speedFactor="0.86" vaporized=""/>
    <tripinfo id="flow_ew.4" depart="29.00" departLane="e_t_0" departPos="5.10" departSpeed="13.55" departDelay="0.20" arrival="75.00" arrivalLane="t_w_0" arrivalPos="139.67" arrivalSpeed="13.45" duration="46.00" routeLength="294.97" waitingTime="9.00" waitingCount="1" stopTime="0.00" timeLoss="24.14" rerouteNo="0" devices="tripinfo_flow_ew.4" vType="DEFAULT_VEHTYPE@flow_ew.4" speedFactor="0.98" vaporized=""/>
    <tripinfo id="flow_we.2" depart="14.50" departLane="w_t_0" departPos="5.10" departSpeed="15.61" departDelay="0.10" arrival="75.50" arrivalLane="t_e_0" arrivalPos="139.60" arrivalSpeed="15.52" duration="61.00" routeLength="294.97" waitingTime="31.00" waitingCount="1" stopTime="0.00" timeLoss="41.97" rerouteNo="0" devices="tripinfo_flow_we.2" vType="DEFAULT_VEHTYPE@flow_we.2" speedFactor="1.12" vaporized=""/>
    <tripinfo id="flow_ew.5" depart="36.00" departLane="e_t_0" departPos="5.10" departSpeed="13.19" departDelay="0.00" arrival="77.00" arrivalLane="t_w_0" arrivalPos="139.67" arrivalSpeed="13.03" duration="41.00" routeLength="294.97" waitingTime="3.00" waitingCount="1" stopTime="0.00" timeLoss="18.15" rerouteNo="0" devices="tripinfo_flow_ew.5" vType="DEFAULT_VEHTYPE@flow_ew.5" speedFactor="0.95" vaporized=""/>
    <tripinfo id="flow_ew.6" depart="43.50" departLane="e_t_0" departPos="5.10" departSpeed="13.97" departDelay="0.30" arrival="78.50" arrivalLane="t_w_0" arrivalPos="139.67" arrivalSpeed="13.90" duration="35.00" routeLength="294.97" waitingTime="0.00" waitingCount="0" stopTime="0.00" timeLoss="13.85" rerouteNo="0" devices="tripinfo_flow_ew.6" vType="DEFAULT_VEHTYPE@flow_ew.6" speedFactor="1.01" vaporized=""/>
    <tripinfo id="flow_we.3" depart="22.00" departLane="w_t_0" departPos="5.10" departSpeed="13.01" departDelay="0.40" arrival="79.00" arrivalLane="t_e_0" arrivalPos="139.60" arrivalSpeed="12.83" duration="57.00" routeLength="294.97" waitingTime="21.00" waitingCount="1" stopTime="0.00" timeLoss="34.34" rerouteNo="0" devices="tripinfo_flow_we.3" vType="DEFAULT_VEHTYPE@flow_we.3" speedFactor="0.94" vaporized=""/>
    <tripinfo id="flow_ew.7" depart="50.50" departLane="e_t_0" departPos="5.10" departSpeed="16.40" departDelay="0.10" arrival="83.00" arrivalLane="t_w_0" arrivalPos="139.67" arrivalSpeed="15.55" duration="32.50" routeLength="294.97" waitingTime="0.00" waitingCount="0" stopTime="0.00" timeLoss="14.05" rerouteNo="0" devices="tripinfo_flow_ew.7" vType="DEFAULT_VEHTYPE@flow_ew.7" speedFactor="1.18" vaporized=""/>
    <tripinfo id="flow_we.4" depart="29.00" departLane="w_t_0" departPos="5.10" departSpeed="12.37" departDelay="0.20" arrival="83.50" arrivalLane="t_e_0" arrivalPos="139.60" arrivalSpeed="12.20" duration="54.50" routeLength="294.97" waitingTime="15.00" waitingCount="1" stopTime="0.00" timeLoss="30.54" rerouteNo="0" devices="tripinfo_flow_we.4" vType="DEFAULT_VEHTYPE@flow_we.4" speedFactor="0.89" vaporized=""/>
    <tripinfo id="flow_we.5" depart="36.00" departLane="w_t_0" departPos="5.10" departSpeed="15.73" departDelay="0.00" arrival="85.50" arrivalLane="t_e_0" arrivalPos="139.60" arrivalSpeed="14.10" duration="49.50" routeLength="294.97" waitingTime="11.50" waitingCount="1" stopTime="0.00" timeLoss="30.32" rerouteNo="0" devices="tripinfo_flow_we.5" vType="DEFAULT_VEHTYPE@flow_we.5" speedFactor="1.13" vaporized=""/>
    <tripinfo id="flow_ew.8" depart="58.00" departLane="e_t_0" departPos="5.10" departSpeed="15.18" departDelay="0.40" arrival="86.50" arrivalLane="t_w_0" arrivalPos="139.67" arrivalSpeed="14.93" duration="28.50" routeLength="294.97" waitingTime="0.00" waitingCount="0" stopTime="0.00" timeLoss="8.59" rerouteNo="0" devices="tripinfo_flow_ew.8" vType="DEFAULT_VEHTYPE@flow_ew.8" speedFactor="1.09" vaporized=""/>
    <tripinfo id="flow_we.6" depart="43.50" departLane="w_t_0" departPos="5.10" departSpeed="16.29" departDelay="0.30" arrival="88.00" arrivalLane="t_e_0" arrivalPos="139.60" arrivalSpeed="15.88" duration="44.50" routeLength="294.97" waitingTime="5.00" waitingCount="1" stopTime="0.00" timeLoss="26.01" rerouteNo="0" devices="tripinfo_flow_we.6" vType="DEFAULT_VEHTYPE@flow_we.6" speedFactor="1.17" vaporized=""/>
    <tripinfo id="flow_we.7" depart="50.50" departLane="w_t_0" departPos="5.10" departSpeed="15.32" departDelay="0.10" arrival="91.00" arrivalLane="t_e_0" arrivalPos="139.60" arrivalSpeed="15.28" duration="40.50" routeLength="294.97" waitingTime="0.00" waitingCount="0" stopTime="0.00" timeLoss="20.96" rerouteNo="0" devices="tripinfo_flow_we.7" vType="DEFAULT_VEHTYPE@flow_we.7" speedFactor="1.10" vaporized=""/>
    <tripinfo id="flow_we.8" depart="58.00" departLane="w_t_0" departPos="5.10" departSpeed="14.42" departDelay="0.40" arrival="94.00" arrivalLane="t_e_0" arrivalPos="139.60" arrivalSpeed="14.32" duration="36.00" routeLength="294.97" waitingTime="0.00" waitingCount="0" stopTime="0.00" timeLoss="15.19" rerouteNo="0" devices="tripinfo_flow_we.8" vType="DEFAULT_VEHTYPE@flow_we.8" speedFactor="1.04" vaporized=""/>
    <tripinfo id="flow_ns.4" depart="14.50" departLane="n_t_0" departPos="5.10" departSpeed="15.16" departDelay="0.10" arrival="111.50" arrivalLane="t_s_0" arrivalPos="139.60" arrivalSpeed="15.04" duration="97.00" routeLength="294.90" waitingTime="39.50" waitingCount="6" stopTime="0.00" timeLoss="77.39" rerouteNo="0" devices="tripinfo_flow_ns.4" vType="DEFAULT_VEHTYPE@flow_ns.4" speedFactor="1.09" vaporized=""/>
    <tripinfo id="flow_ns.5" depart="18.00" departLane="n_t_0" departPos="5.10" departSpeed="13.78" departDelay="0.00" arrival="113.50" arrivalLane="t_s_1" arrivalPos="139.60" arrivalSpeed="13.55" duration="95.50" routeLength="294.90" waitingTime="39.00" waitingCount="5" stopTime="0.00" timeLoss="73.78" rerouteNo="0" devices="tripinfo_flow_ns.5" vType="DEFAULT_VEHTYPE@flow_ns.5" speedFactor="0.99" vaporized=""/>
    <tripinfo id="flow_ns.6" depart="22.00" departLane="n_t_0" departPos="5.10" departSpeed="12.88" departDelay="0.40" arrival="115.50" arrivalLane="t_s_0" arrivalPos="139.60" arrivalSpeed="12.76" duration="93.50" routeLength="294.90" waitingTime="35.00" waitingCount="2" stopTime="0.00" timeLoss="70.30" rerouteNo="0" devices="tripinfo_flow_ns.6" vType="DEFAULT_VEHTYPE@flow_ns.6" speedFactor="0.93" vaporized=""/>
    <tripinfo id="flow_ns.7" depart="25.50" departLane="n_t_0" departPos="5.10" departSpeed="16.10" departDelay="0.30" arrival="118.00" arrivalLane="t_s_0" arrivalPos="139.60" arrivalSpeed="15.76" duration="92.50" routeLength="294.90" waitingTime="33.00" waitingCount="2" stopTime="0.00" timeLoss="73.83" rerouteNo="0" devices="tripinfo_flow_ns.7" vType="DEFAULT_VEHTYPE@flow_ns.7" speedFactor="1.16" vaporized=""/>
    <tripinfo id="flow_ns.8" depart="29.00" departLane="n_t_0" departPos="5.10" departSpeed="14.15" departDelay="0.20" arrival="121.00" arrivalLane="t_s_0" arrivalPos="139.60" arrivalSpeed="13.97" duration="92.00" routeLength="294.90" waitingTime="31.50" waitingCount="2" stopTime="0.00" timeLoss="70.99" rerouteNo="0" devices="tripinfo_flow_ns.8" vType="DEFAULT_VEHTYPE@flow_ns.8" speedFactor="1.02" vaporized=""/>
    <tripinfo id="flow_ns.9" depart="32.50" departLane="n_t_0" departPos="5.10" departSpeed="11.48" departDelay="0.10" arrival="125.00" arrivalLane="t_s_0" arrivalPos="139.60" arrivalSpeed="11.24" duration="92.50" routeLength="294.90" waitingTime="30.50" waitingCount="2" stopTime="0.00" timeLoss="66.41" rerouteNo="0" devices="tripinfo_flow_ns.9" vType="DEFAULT_VEHTYPE@flow_ns.9" speedFactor="0.83" vaporized=""/>
    <tripinfo id="flow_ns.10" depart="36.00" departLane="n_t_0" departPos="5.10" departSpeed="12.13" departDelay="0.00" arrival="127.00" arrivalLane="t_s_0" arrivalPos="139.60" arrivalSpeed="12.02" duration="91.00" routeLength="294.90" waitingTime="28.50" waitingCount="2" stopTime="0.00" timeLoss="66.68" rerouteNo="0" devices="tripinfo_flow_ns.10" vType="DEFAULT_VEHTYPE@flow_ns.10" speedFactor="0.87" vaporized=""/>
    <tripinfo id="flow_ns.11" depart="40.00" departLane="n_t_0" departPos="5.10" departSpeed="12.95" departDelay="0.40" arrival="130.00" arrivalLane="t_s_0" arrivalPos="139.60" arrivalSpeed="12.81" duration="90.00" routeLength="294.90" waitingTime="27.00" waitingCount="1" stopTime="0.00" timeLoss="66.99" rerouteNo="0" devices="tripinfo_flow_ns.11" vType="DEFAULT_VEHTYPE@flow_ns.11" speedFactor="0.93" vaporized=""/>
    <tripinfo id="flow_ns.12" depart="43.50" departLane="n_t_0" departPos="5.10" departSpeed="16.38" departDelay="0.30" arrival="132.50" arrivalLane="t_s_0" arrivalPos="139.60" arrivalSpeed="15.81" duration="89.00" routeLength="294.90" waitingTime="25.50" waitingCount="1" stopTime="0.00" timeLoss="70.70" rerouteNo="0" devices="tripinfo_flow_ns.12" vType="DEFAULT_VEHTYPE@flow_ns.12" speedFactor="1.18" vaporized=""/>
    <tripinfo id="flow_ns.13" depart="47.00" departLane="n_t_0" departPos="5.10" departSpeed="13.83" departDelay="0.20" arrival="135.50" arrivalLane="t_s_0" arrivalPos="139.60" arrivalSpeed="13.65" duration="88.50" routeLength="294.90" waitingTime="23.50" waitingCount="1" stopTime="0.00" timeLoss="66.91" rerouteNo="0" devices="tripinfo_flow_ns.13" vType="DEFAULT_VEHTYPE@flow_ns.13" speedFactor="0.99" vaporized=""/>
    <tripinfo id="flow_ns.14" depart="50.50" departLane="n_t_0" departPos="5.10" departSpeed="14.17" departDelay="0.10" arrival="139.00" arrivalLane="t_s_0" arrivalPos="139.60" arrivalSpeed="14.04" duration="88.50" routeLength="294.90" waitingTime="22.00" waitingCount="1" stopTime="0.00" timeLoss="67.31" rerouteNo="0" devices="tripinfo_flow_ns.14" vType="DEFAULT_VEHTYPE@flow_ns.14" speedFactor="1.02" vaporized=""/>
    <tripinfo id="flow_ns.15" depart="54.00" departLane="n_t_0" departPos="5.10" departSpeed="12.52" departDelay="0.00" arrival="142.00" arrivalLane="t_s_0" arrivalPos="139.60" arrivalSpeed="12.34" duration="88.00" routeLength="294.90" waitingTime="20.00" waitingCount="1" stopTime="0.00" timeLoss="63.97" rerouteNo="0" devices="tripinfo_flow_ns.15" vType="DEFAULT_VEHTYPE@flow_ns.15" speedFactor="0.90" vaporized=""/>
    <tripinfo id="flow_ns.16" depart="58.00" departLane="n_t_0" departPos="5.10" departSpeed="14.32" departDelay="0.40" arrival="144.00" arrivalLane="t_s_0" arrivalPos="139.60" arrivalSpeed="14.22" duration="86.00" routeLength="294.90" waitingTime="17.50" waitingCount="1" stopTime="0.00" timeLoss="65.33" rerouteNo="0" devices="tripinfo_flow_ns.16" vType="DEFAULT_VEHTYPE@flow_ns.16" speedFactor="1.03" vaporized=""/>
    <tripinfo id="flow_ns.17" depart="61.50" departLane="n_t_0" departPos="5.10" departSpeed="14.32" departDelay="0.30" arrival="148.00" arrivalLane="t_s_0" arrivalPos="139.60" arrivalSpeed="14.50" duration="86.50" routeLength="294.90" waitingTime="15.50" waitingCount="1" stopTime="0.00" timeLoss="66.00" rerouteNo="0" devices="tripinfo_flow_ns.17" vType="DEFAULT_VEHTYPE@flow_ns.17" speedFactor="1.04" vaporized=""/>
    <tripinfo id="flow_ns.18" depart="65.00" departLane="n_t_0" departPos="5.10" departSpeed="12.59" departDelay="0.20" arrival="150.00" arrivalLane="t_s_0" arrivalPos="139.60" arrivalSpeed="15.11" duration="85.00" routeLength="294.90" waitingTime="13.00" waitingCount="1" stopTime="0.00" timeLoss="65.22" rerouteNo="0" devices="tripinfo_flow_ns.18" vType="DEFAULT_VEHTYPE@flow_ns.18" speedFactor="1.09" vaporized=""/>
    <tripinfo id="flow_ns.19" depart="68.50" departLane="n_t_0" departPos="5.10" departSpeed="10.57" departDelay="0.10" arrival="154.50" arrivalLane="t_s_0" arrivalPos="139.60" arrivalSpeed="11.74" duration="86.00" routeLength="294.90" waitingTime="11.00" waitingCount="1" stopTime="0.00" timeLoss="60.91" rerouteNo="0" devices="tripinfo_flow_ns.19" vType="DEFAULT_VEHTYPE@flow_ns.19" speedFactor="0.85" vaporized=""/>
    <tripinfo id="flow_ns.20" depart="72.00" departLane="n_t_0" departPos="5.10" departSpeed="8.24" departDelay="0.00" arrival="158.00" arrivalLane="t_s_0" arrivalPos="139.60" arrivalSpeed="11.87" duration="86.00" routeLength="294.90" waitingTime="8.50" waitingCount="1" stopTime="0.00" timeLoss="60.77" rerouteNo="0" devices="tripinfo_flow_ns.20" vType="DEFAULT_VEHTYPE@flow_ns.20" speedFactor="0.85" vaporized=""/>
    <tripinfo id="flow_ns.21" depart="76.00" departLane="n_t_0" departPos="5.10" departSpeed="5.34" departDelay="0.40" arrival="161.00" arrivalLane="t_s_0" arrivalPos="139.60" arrivalSpeed="13.73" duration="85.00" routeLength="294.90" waitingTime="7.50" waitingCount="1" stopTime="0.00" timeLoss="63.50" rerouteNo="0" devices="tripinfo_flow_ns.21" vType="DEFAULT_VEHTYPE@flow_ns.21" speedFactor="1.00" vaporized=""/>
    <tripinfo id="flow_ns.22" depart="79.50" departLane="n_t_0" departPos="5.10" departSpeed="0.05" departDelay="0.30" arrival="163.00" arrivalLane="t_s_0" arrivalPos="139.60" arrivalSpeed="13.75" duration="83.50" routeLength="294.90" waitingTime="8.00" waitingCount="2" stopTime="0.00" timeLoss="62.13" rerouteNo="0" devices="tripinfo_flow_ns.22" vType="DEFAULT_VEHTYPE@flow_ns.22" speedFactor="1.00" vaporized=""/>
    <tripinfo id="flow_ns.23" depart="101.00" departLane="n_t_0" departPos="5.10" departSpeed="0.15" departDelay="18.20" arrival="165.50" arrivalLane="t_s_0" arrivalPos="139.60" arrivalSpeed="13.45" duration="64.50" routeLength="294.90" waitingTime="0.00" waitingCount="0" stopTime="0.00" timeLoss="42.23" rerouteNo="0" devices="tripinfo_flow_ns.23" vType="DEFAULT_VEHTYPE@flow_ns.23" speedFactor="0.97" vaporized=""/>
    <tripinfo id="flow_ns.24" depart="113.50" departLane="n_t_0" departPos="5.10" departSpeed="0.30" departDelay="27.10" arrival="168.00" arrivalLane="t_s_0" arrivalPos="139.60" arrivalSpeed="14.90" duration="54.50" routeLength="294.90" waitingTime="0.00" waitingCount="0" stopTime="0.00" timeLoss="34.51" rerouteNo="0" devices="tripinfo_flow_ns.24" vType="DEFAULT_VEHTYPE@flow_ns.24" speedFactor="1.08" vaporized=""/>
    <tripinfo id="flow_ns.25" depart="118.00" departLane="n_t_0" departPos="5.10" departSpeed="1.06" departDelay="28.00" arrival="172.00" arrivalLane="t_s_0" arrivalPos="139.60" arrivalSpeed="12.82" duration="54.00" routeLength="294.90" waitingTime="0.00" waitingCount="0" stopTime="0.00" timeLoss="30.94" rerouteNo="0" devices="tripinfo_flow_ns.25" vType="DEFAULT_VEHTYPE@flow_ns.25" speedFactor="0.94" vaporized=""/>
    <tripinfo id="flow_ns.26" depart="121.50" departLane="n_t_0" departPos="5.10" departSpeed="0.88" departDelay="27.90" arrival="175.50" arrivalLane="t_s_0" arrivalPos="139.60" arrivalSpeed="12.25" duration="54.00" routeLength="294.90" waitingTime="0.00" waitingCount="0" stopTime="0.00" timeLoss="29.69" rerouteNo="0" devices="tripinfo_flow_ns.26" vType="DEFAULT_VEHTYPE@flow_ns.26" speedFactor="0.88" vaporized=""/>
    <tripinfo id="flow_ns.27" depart="125.50" departLane="n_t_0" departPos="5.10" departSpeed="0.79" departDelay="28.30" arrival="178.00" arrivalLane="t_s_0" arrivalPos="139.60" arrivalSpeed="13.99" duration="52.50" routeLength="294.90" waitingTime="0.00" waitingCount="0" stopTime="0.00" timeLoss="31.29" rerouteNo="0" devices="tripinfo_flow_ns.27" vType="DEFAULT_VEHTYPE@flow_ns.27" speedFactor="1.02" vaporized=""/>
    <tripinfo id="flow_ns.28" depart="129.50" departLane="n_t_0" departPos="5.10" departSpeed="1.79" departDelay="28.70" arrival="181.50" arrivalLane="t_s_0" arrivalPos="139.60" arrivalSpeed="14.16" duration="52.00" routeLength="294.90" waitingTime="0.00" waitingCount="0" stopTime="0.00" timeLoss="30.85" rerouteNo="0" devices="tripinfo_flow_ns.28" vType="DEFAULT_VEHTYPE@flow_ns.28" speedFactor="1.02" vaporized=""/>
    <tripinfo id="flow_ns.29" depart="132.50" departLane="n_t_0" departPos="5.10" departSpeed="1.80" departDelay="28.10" arrival="183.00" arrivalLane="t_s_0" arrivalPos="139.60" arrivalSpeed="13.10" duration="50.50" routeLength="294.90" waitingTime="0.00" waitingCount="0" stopTime="0.00" timeLoss="28.11" rerouteNo="0" devices="tripinfo_flow_ns.29" vType="DEFAULT_VEHTYPE@flow_ns.29" speedFactor="0.96" vaporized=""/>
    <tripinfo id="flow_ns.30" depart="135.50" departLane="n_t_0" departPos="5.10" departSpeed="1.75" departDelay="27.50" arrival="186.50" arrivalLane="t_s_0" arrivalPos="139.60" arrivalSpeed="13.50" duration="51.00" routeLength="294.90" waitingTime="0.00" waitingCount="0" stopTime="0.00" timeLoss="29.16" rerouteNo="0" devices="tripinfo_flow_ns.30" vType="DEFAULT_VEHTYPE@flow_ns.30" speedFactor="0.98" vaporized=""/>
    <tripinfo id="flow_ns.31" depart="139.00" departLane="n_t_0" departPos="5.10" departSpeed="2.04" departDelay="27.40" arrival="189.00" arrivalLane="t_s_0" arrivalPos="139.60" arrivalSpeed="15.05" duration="50.00" routeLength="294.90" waitingTime="0.00" waitingCount="0" stopTime="0.00" timeLoss="30.35" rerouteNo="0" devices="tripinfo_flow_ns.31" vType="DEFAULT_VEHTYPE@flow_ns.31" speedFactor="1.09" vaporized=""/>
    <tripinfo id="flow_ns.32" depart="142.00" departLane="n_t_0" departPos="5.10" departSpeed="1.25" departDelay="26.80" arrival="192.00" arrivalLane="t_s_0" arrivalPos="139.60" arrivalSpeed="14.36" duration="50.00" routeLength="294.90" waitingTime="0.00" waitingCount="0" stopTime="0.00" timeLoss="29.19" rerouteNo="0" devices="tripinfo_flow_ns.32" vType="DEFAULT_VEHTYPE@flow_ns.32" speedFactor="1.03" vaporized=""/>
    <tripinfo id="flow_ns.33" depart="146.00" departLane="n_t_0" departPos="5.10" departSpeed="2.28" departDelay="27.20" arrival="194.50" arrivalLane="t_s_0" arrivalPos="139.60" arrivalSpeed="15.93" duration="48.50" routeLength="294.90" waitingTime="0.00" waitingCount="0" stopTime="0.00" timeLoss="29.95" rerouteNo="0" devices="tripinfo_flow_ns.33" vType="DEFAULT_VEHTYPE@flow_ns.33" speedFactor="1.15" vaporized=""/>
    <tripinfo id="flow_ns.34" depart="148.50" departLane="n_t_0" departPos="5.10" departSpeed="0.91" departDelay="26.10" arrival="199.00" arrivalLane="t_s_0" arrivalPos="139.60" arrivalSpeed="13.34" duration="50.50" routeLength="294.90" waitingTime="0.00" waitingCount="0" stopTime="0.00" timeLoss="28.75" rerouteNo="0" devices="tripinfo_flow_ns.34" vType="DEFAULT_VEHTYPE@flow_ns.34" speedFactor="0.98" vaporized=""/>
    <tripinfo id="flow_ns.35" depart="152.00" departLane="n_t_0" departPos="5.10" departSpeed="0.67" departDelay="26.00" arrival="201.50" arrivalLane="t_s_0" arrivalPos="139.60" arrivalSpeed="14.20" duration="49.50" routeLength="294.90" waitingTime="0.00" waitingCount="0" stopTime="0.00" timeLoss="28.57" rerouteNo="0" devices="tripinfo_flow_ns.35" vType="DEFAULT_VEHTYPE@flow_ns.35" speedFactor="1.02" vaporized=""/>
    <tripinfo id="flow_ns.36" depart="156.00" departLane="n_t_0" departPos="5.10" departSpeed="1.81" departDelay="26.40" arrival="204.00" arrivalLane="t_s_0" arrivalPos="139.60" arrivalSpeed="14.06" duration="48.00" routeLength="294.90" waitingTime="0.00" waitingCount="0" stopTime="0.00" timeLoss="26.81" rerouteNo="0" devices="tripinfo_flow_ns.36" vType="DEFAULT_VEHTYPE@flow_ns.36" speedFactor="1.02" vaporized=""/>
    <tripinfo id="flow_ns.37" depart="159.00" departLane="n_t_0" departPos="5.10" departSpeed="0.88" departDelay="25.80" arrival="208.00" arrivalLane="t_s_0" arrivalPos="139.60" arrivalSpeed="14.99" duration="49.00" routeLength="294.90" waitingTime="0.00" waitingCount="0" stopTime="0.00" timeLoss="29.11" rerouteNo="0" devices="tripinfo_flow_ns.37" vType="DEFAULT_VEHTYPE@flow_ns.37" speedFactor="1.09" vaporized=""/>
    <tripinfo id="flow_ns.38" depart="163.00" departLane="n_t_0" departPos="5.10" departSpeed="0.64" departDelay="26.20" arrival="209.50" arrivalLane="t_s_0" arrivalPos="139.60" arrivalSpeed="14.51" duration="46.50" routeLength="294.90" waitingTime="0.00" waitingCount="0" stopTime="0.00" timeLoss="26.31" rerouteNo="0" devices="tripinfo_flow_ns.38" vType="DEFAULT_VEHTYPE@flow_ns.38" speedFactor="1.06" vaporized=""/>
    <tripinfo id="flow_ns.39" depart="167.00" departLane="n_t_0" departPos="5.10" departSpeed="0.53" departDelay="26.60" arrival="213.00" arrivalLane="t_s_0" arrivalPos="139.60" arrivalSpeed="15.24" duration="46.00" routeLength="294.90" waitingTime="0.00" waitingCount="0" stopTime="0.00" timeLoss="26.26" rerouteNo="0" devices="tripinfo_flow_ns.39" vType="DEFAULT_VEHTYPE@flow_ns.39" speedFactor="1.10" vaporized=""/>
    <tripinfo id="flow_ns.40" depart="171.50" departLane="n_t_0" departPos="5.10" departSpeed="2.33" departDelay="27.50" arrival="217.00" arrivalLane="t_s_0" arrivalPos="139.60" arrivalSpeed="14.63" duration="45.50" routeLength="294.90" waitingTime="0.00" waitingCount="0" stopTime="0.00" timeLoss="25.36" rerouteNo="0" devices="tripinfo_flow_ns.40" vType="DEFAULT_VEHTYPE@flow_ns.40" speedFactor="1.07" vaporized=""/>
    <tripinfo id="flow_ns.41" depart="174.50" departLane="n_t_0" departPos="5.10" departSpeed="2.22" departDelay="26.90" arrival="219.50" arrivalLane="t_s_0" arrivalPos="139.60" arrivalSpeed="12.40" duration="45.00" routeLength="294.90" waitingTime="0.00" waitingCount="0" stopTime="0.00" timeLoss="21.24" rerouteNo="0" devices="tripinfo_flow_ns.41" vType="DEFAULT_VEHTYPE@flow_ns.41" speedFactor="0.89" vaporized=""/>
    <tripinfo id="flow_ns.42" depart="177.50" departLane="n_t_0" departPos="5.10" departSpeed="1.89" departDelay="26.30" arrival="222.50" arrivalLane="t_s_0" arrivalPos="139.60" arrivalSpeed="14.84" duration="45.00" routeLength="294.90" waitingTime="0.00" waitingCount="0" stopTime="0.00" timeLoss="25.09" rerouteNo="0" devices="tripinfo_flow_ns.42" vType="DEFAULT_VEHTYPE@flow_ns.42" speedFactor="1.07" vaporized=""/>
    <tripinfo id="flow_ns.43" depart="180.50" departLane="n_t_0" departPos="5.10" departSpeed="1.50" departDelay="25.70" arrival="226.50" arrivalLane="t_s_0" arrivalPos="139.60" arrivalSpeed="13.17" duration="46.00" routeLength="294.90" waitingTime="0.00" waitingCount="0" stopTime="0.00" timeLoss="23.49" rerouteNo="0" devices="tripinfo_flow_ns.43" vType="DEFAULT_VEHTYPE@flow_ns.43" speedFactor="0.96" vaporized=""/>
    <tripinfo id="flow_ns.44" depart="184.00" departLane="n_t_0" departPos="5.10" departSpeed="1.78" departDelay="25.60" arrival="229.00" arrivalLane="t_s_0" arrivalPos="139.60" arrivalSpeed="12.73" duration="45.00" routeLength="294.90" waitingTime="0.00" waitingCount="0" stopTime="0.00" timeLoss="21.80" rerouteNo="0" devices="tripinfo_flow_ns.44" vType="DEFAULT_VEHTYPE@flow_ns.44" speedFactor="0.93" vaporized=""/>
    <tripinfo id="flow_ns.45" depart="187.50" departLane="n_t_0" departPos="5.10" departSpeed="2.31" departDelay="25.50" arrival="230.50" arrivalLane="t_s_0" arrivalPos="139.60" arrivalSpeed="14.31" duration="43.00" routeLength="294.90" waitingTime="0.00" waitingCount="0" stopTime="0.00" timeLoss="23.40" rerouteNo="0" devices="tripinfo_flow_ns.45" vType="DEFAULT_VEHTYPE@flow_ns.45" speedFactor="1.10" vaporized=""/>
    <tripinfo id="flow_ns.46" depart="190.50" departLane="n_t_0" departPos="5.10" departSpeed="2.68" departDelay="24.90" arrival="232.50" arrivalLane="t_s_0" arrivalPos="139.60" arrivalSpeed="12.75" duration="42.00" routeLength="294.90" waitingTime="0.00" waitingCount="0" stopTime="0.00" timeLoss="18.99" rerouteNo="0" devices="tripinfo_flow_ns.46" vType="DEFAULT_VEHTYPE@flow_ns.46" speedFactor="0.92" vaporized=""/>
    <tripinfo id="flow_ns.47" depart="193.00" departLane="n_t_0" departPos="5.10" departSpeed="1.82" departDelay="23.80" arrival="236.00" arrivalLane="t_s_0" arrivalPos="139.60" arrivalSpeed="14.70" duration="43.00" routeLength="294.90" waitingTime="0.00" waitingCount="0" stopTime="0.00" timeLoss="22.80" rerouteNo="0" devices="tripinfo_flow_ns.47" vType="DEFAULT_VEHTYPE@flow_ns.47" speedFactor="1.07" vaporized=""/>