<?xml version="1.0" encoding="UTF-8"?>

<!-- generated on 06 ماي, 2021 12:25:26 ص by Eclipse SUMO GUI Version v1_8_0+0922-7b2bbb9a60
<configuration xmlns:xsi="http://www.w3.org/2001/XMLSchema-instance" xsi:noNamespaceSchemaLocation="http://sumo.dlr.de/xsd/sumoConfiguration.xsd">

    <input>
        <net-file value="/home/mg/GP/Implementation/version%201.0%201/data/cross.net.xml"/>
        <route-files value="/home/mg/GP/Implementation/version%201.0%201/data/cross.rou.xml"/>
        <additional-files value="/home/mg/GP/Implementation/version%201.0%201/data/cross.det.xml"/>
    </input>

    <time>
        <begin value="0"/>
    </time>

    <report>
        <verbose value="true"/>
        <no-step-log value="true"/>
    </report>

</configuration>
-->

<detector xmlns:xsi="http://www.w3.org/2001/XMLSchema-instance" xsi:noNamespaceSchemaLocation="http://sumo.dlr.de/xsd/det_e1_file.xsd">
</detector>
