<?xml version="1.0" encoding="UTF-8"?>

<!-- generated on Thu May 27 21:17:40 2021 by Eclipse SUMO sumo Version v1_8_0+0922-7b2bbb9a60
<configuration xmlns:xsi="http://www.w3.org/2001/XMLSchema-instance" xsi:noNamespaceSchemaLocation="http://sumo.dlr.de/xsd/sumoConfiguration.xsd">

    <input>
        <net-file value="data/cross.net.xml"/>
        <route-files value="data/cross.rou.xml"/>
        <additional-files value="data/cross.det.xml"/>
    </input>

    <output>
        <tripinfo-output value="tripinfo.xml"/>
    </output>

    <time>
        <begin value="0"/>
        <step-length value=".5"/>
    </time>

    <processing>
        <collision.action value="none"/>
        <collision.mingap-factor value="0"/>
        <time-to-teleport value="-1"/>
        <time-to-teleport.highways value="-1"/>
    </processing>

    <report>
        <verbose value="true"/>
        <no-step-log value="true"/>
    </report>

    <traci_server>
        <remote-port value="58095"/>
    </traci_server>

    <gui_only>
        <tracker-interval value="0.5"/>
    </gui_only>

</configuration>
-->

<detector xmlns:xsi="http://www.w3.org/2001/XMLSchema-instance" xsi:noNamespaceSchemaLocation="http://sumo.dlr.de/xsd/det_e1_file.xsd">
    <interval begin="0.00" end="30.00" id="0" nVehContrib="0" flow="0.00" occupancy="0.00" speed="-1.00" harmonicMeanSpeed="-1.00" length="-1.00" nVehEntered="0"/>
    <interval begin="30.00" end="60.00" id="0" nVehContrib="1" flow="120.00" occupancy="2.20" speed="6.82" harmonicMeanSpeed="6.82" length="4.50" nVehEntered="1"/>
    <interval begin="60.00" end="90.00" id="0" nVehContrib="8" flow="960.00" occupancy="17.50" speed="6.86" harmonicMeanSpeed="6.86" length="4.50" nVehEntered="8"/>
    <interval begin="90.00" end="120.00" id="0" nVehContrib="4" flow="480.00" occupancy="8.71" speed="6.88" harmonicMeanSpeed="6.88" length="4.50" nVehEntered="4"/>
    <interval begin="120.00" end="150.00" id="0" nVehContrib="3" flow="360.00" occupancy="6.53" speed="6.89" harmonicMeanSpeed="6.89" length="4.50" nVehEntered="3"/>
    <interval begin="150.00" end="180.00" id="0" nVehContrib="4" flow="480.00" occupancy="8.74" speed="6.86" harmonicMeanSpeed="6.86" length="4.50" nVehEntered="4"/>
    <interval begin="180.00" end="210.00" id="0" nVehContrib="3" flow="360.00" occupancy="6.58" speed="6.84" harmonicMeanSpeed="6.83" length="4.50" nVehEntered="3"/>
    <interval begin="210.00" end="240.00" id="0" nVehContrib="4" flow="480.00" occupancy="8.75" speed="6.86" harmonicMeanSpeed="6.86" length="4.50" nVehEntered="4"/>
    <interval begin="240.00" end="270.00" id="0" nVehContrib="4" flow="480.00" occupancy="8.65" speed="6.93" harmonicMeanSpeed="6.93" length="4.50" nVehEntered="4"/>
    <interval begin="270.00" end="300.00" id="0" nVehContrib="4" flow="480.00" occupancy="8.68" speed="6.91" harmonicMeanSpeed="6.91" length="4.50" nVehEntered="4"/>
    <interval begin="300.00" end="330.00" id="0" nVehContrib="3" flow="360.00" occupancy="6.57" speed="6.85" harmonicMeanSpeed="6.85" length="4.50" nVehEntered="3"/>
    <interval begin="330.00" end="360.00" id="0" nVehContrib="5" flow="600.00" occupancy="10.88" speed="6.89" harmonicMeanSpeed="6.89" length="4.50" nVehEntered="5"/>
    <interval begin="360.00" end="390.00" id="0" nVehContrib="2" flow="240.00" occupancy="4.33" speed="6.93" harmonicMeanSpeed="6.93" length="4.50" nVehEntered="2"/>
    <interval begin="390.00" end="420.00" id="0" nVehContrib="2" flow="240.00" occupancy="4.40" speed="6.82" harmonicMeanSpeed="6.82" length="4.50" nVehEntered="2"/>
    <interval begin="420.00" end="450.00" id="0" nVehContrib="2" flow="240.00" occupancy="4.37" speed="6.86" harmonicMeanSpeed="6.86" length="4.50" nVehEntered="2"/>
    <interval begin="450.00" end="480.00" id="0" nVehContrib="3" flow="360.00" occupancy="6.55" speed="6.88" harmonicMeanSpeed="6.88" length="4.50" nVehEntered="3"/>
    <interval begin="480.00" end="510.00" id="0" nVehContrib="3" flow="360.00" occupancy="6.60" speed="6.82" harmonicMeanSpeed="6.82" length="4.50" nVehEntered="3"/>
    <interval begin="510.00" end="540.00" id="0" nVehContrib="5" flow="600.00" occupancy="10.89" speed="6.88" harmonicMeanSpeed="6.88" length="4.50" nVehEntered="5"/>
    <interval begin="540.00" end="570.00" id="0" nVehContrib="4" flow="480.00" occupancy="9.85" speed="6.84" harmonicMeanSpeed="6.84" length="4.50" nVehEntered="5"/>
    <interval begin="570.00" end="600.00" id="0" nVehContrib="2" flow="240.00" occupancy="5.29" speed="6.87" harmonicMeanSpeed="6.87" length="4.50" nVehEntered="2"/>
    <interval begin="600.00" end="630.00" id="0" nVehContrib="6" flow="720.00" occupancy="11.10" speed="6.87" harmonicMeanSpeed="6.87" length="4.50" nVehEntered="5"/>
    <interval begin="630.00" end="660.00" id="0" nVehContrib="4" flow="480.00" occupancy="9.14" speed="6.85" harmonicMeanSpeed="6.85" length="4.50" nVehEntered="5"/>
    <interval begin="660.00" end="690.00" id="0" nVehContrib="4" flow="480.00" occupancy="8.39" speed="6.85" harmonicMeanSpeed="6.85" length="4.50" nVehEntered="3"/>
    <interval begin="690.00" end="720.00" id="0" nVehContrib="2" flow="240.00" occupancy="4.36" speed="6.88" harmonicMeanSpeed="6.88" length="4.50" nVehEntered="2"/>
    <interval begin="720.00" end="750.00" id="0" nVehContrib="2" flow="240.00" occupancy="4.37" speed="6.87" harmonicMeanSpeed="6.87" length="4.50" nVehEntered="2"/>
    <interval begin="750.00" end="780.00" id="0" nVehContrib="4" flow="480.00" occupancy="8.74" speed="6.86" harmonicMeanSpeed="6.86" length="4.50" nVehEntered="4"/>
    <interval begin="780.00" end="810.00" id="0" nVehContrib="3" flow="360.00" occupancy="6.52" speed="6.90" harmonicMeanSpeed="6.90" length="4.50" nVehEntered="3"/>
    <interval begin="810.00" end="840.00" id="0" nVehContrib="2" flow="240.00" occupancy="4.36" speed="6.89" harmonicMeanSpeed="6.89" length="4.50" nVehEntered="2"/>
    <interval begin="840.00" end="870.00" id="0" nVehContrib="1" flow="120.00" occupancy="2.19" speed="6.84" harmonicMeanSpeed="6.84" length="4.50" nVehEntered="1"/>
    <interval begin="870.00" end="900.00" id="0" nVehContrib="2" flow="240.00" occupancy="4.35" speed="6.90" harmonicMeanSpeed="6.90" length="4.50" nVehEntered="2"/>
    <interval begin="900.00" end="930.00" id="0" nVehContrib="1" flow="120.00" occupancy="2.17" speed="6.92" harmonicMeanSpeed="6.92" length="4.50" nVehEntered="1"/>
    <interval begin="930.00" end="960.00" id="0" nVehContrib="2" flow="240.00" occupancy="5.08" speed="6.92" harmonicMeanSpeed="6.92" length="4.50" nVehEntered="3"/>
    <interval begin="960.00" end="990.00" id="0" nVehContrib="4" flow="480.00" occupancy="8.00" speed="6.86" harmonicMeanSpeed="6.86" length="4.50" nVehEntered="3"/>
    <interval begin="990.00" end="1020.00" id="0" nVehContrib="2" flow="240.00" occupancy="4.38" speed="6.84" harmonicMeanSpeed="6.84" length="4.50" nVehEntered="2"/>
    <interval begin="1020.00" end="1050.00" id="0" nVehContrib="4" flow="480.00" occupancy="8.76" speed="6.85" harmonicMeanSpeed="6.85" length="4.50" nVehEntered="4"/>
    <interval begin="1050.00" end="1080.00" id="0" nVehContrib="3" flow="360.00" occupancy="6.56" speed="6.86" harmonicMeanSpeed="6.86" length="4.50" nVehEntered="3"/>
    <interval begin="1080.00" end="1110.00" id="0" nVehContrib="0" flow="0.00" occupancy="0.00" speed="-1.00" harmonicMeanSpeed="-1.00" length="-1.00" nVehEntered="0"/>
    <interval begin="1110.00" end="1140.00" id="0" nVehContrib="0" flow="0.00" occupancy="0.00" speed="-1.00" harmonicMeanSpeed="-1.00" length="-1.00" nVehEntered="0"/>
    <interval begin="1140.00" end="1170.00" id="0" nVehContrib="1" flow="120.00" occupancy="2.19" speed="6.86" harmonicMeanSpeed="6.86" length="4.50" nVehEntered="1"/>
    <interval begin="1170.00" end="1200.00" id="0" nVehContrib="0" flow="0.00" occupancy="0.00" speed="-1.00" harmonicMeanSpeed="-1.00" length="-1.00" nVehEntered="0"/>
    <interval begin="1200.00" end="1230.00" id="0" nVehContrib="3" flow="360.00" occupancy="6.57" speed="6.85" harmonicMeanSpeed="6.85" length="4.50" nVehEntered="3"/>
    <interval begin="1230.00" end="1260.00" id="0" nVehContrib="0" flow="0.00" occupancy="0.00" speed="-1.00" harmonicMeanSpeed="-1.00" length="-1.00" nVehEntered="0"/>
    <interval begin="1260.00" end="1290.00" id="0" nVehContrib="0" flow="0.00" occupancy="0.00" speed="-1.00" harmonicMeanSpeed="-1.00" length="-1.00" nVehEntered="0"/>
    <interval begin="1290.00" end="1320.00" id="0" nVehContrib="3" flow="360.00" occupancy="6.57" speed="6.85" harmonicMeanSpeed="6.85" length="4.50" nVehEntered="3"/>
    <interval begin="1320.00" end="1350.00" id="0" nVehContrib="0" flow="0.00" occupancy="0.00" speed="-1.00" harmonicMeanSpeed="-1.00" length="-1.00" nVehEntered="0"/>
    <interval begin="1350.00" end="1380.00" id="0" nVehContrib="0" flow="0.00" occupancy="0.00" speed="-1.00" harmonicMeanSpeed="-1.00" length="-1.00" nVehEntered="0"/>
    <interval begin="1380.00" end="1410.00" id="0" nVehContrib="2" flow="240.00" occupancy="4.40" speed="6.82" harmonicMeanSpeed="6.82" length="4.50" nVehEntered="2"/>
    <interval begin="1410.00" end="1440.00" id="0" nVehContrib="0" flow="0.00" occupancy="0.00" speed="-1.00" harmonicMeanSpeed="-1.00" length="-1.00" nVehEntered="0"/>
    <interval begin="1440.00" end="1470.00" id="0" nVehContrib="0" flow="0.00" occupancy="0.00" speed="-1.00" harmonicMeanSpeed="-1.00" length="-1.00" nVehEntered="0"/>
    <interval begin="1470.00" end="1500.00" id="0" nVehContrib="2" flow="240.00" occupancy="4.36" speed="6.88" harmonicMeanSpeed="6.88" length="4.50" nVehEntered="2"/>
    <interval begin="1500.00" end="1530.00" id="0" nVehContrib="6" flow="720.00" occupancy="13.06" speed="6.89" harmonicMeanSpeed="6.89" length="4.50" nVehEntered="6"/>
    <interval begin="1530.00" end="1560.00" id="0" nVehContrib="1" flow="120.00" occupancy="2.15" speed="6.98" harmonicMeanSpeed="6.98" length="4.50" nVehEntered="1"/>
    <interval begin="1560.00" end="1590.00" id="0" nVehContrib="1" flow="120.00" occupancy="2.18" speed="6.87" harmonicMeanSpeed="6.87" length="4.50" nVehEntered="1"/>
    <interval begin="1590.00" end="1620.00" id="0" nVehContrib="2" flow="240.00" occupancy="4.37" speed="6.87" harmonicMeanSpeed="6.87" length="4.50" nVehEntered="2"/>
    <interval begin="1620.00" end="1650.00" id="0" nVehContrib="0" flow="0.00" occupancy="0.00" speed="-1.00" harmonicMeanSpeed="-1.00" length="-1.00" nVehEntered="0"/>
    <interval begin="1650.00" end="1680.00" id="0" nVehContrib="2" flow="240.00" occupancy="4.37" speed="6.86" harmonicMeanSpeed="6.86" length="4.50" nVehEntered="2"/>
    <interval begin="1680.00" end="1710.00" id="0" nVehContrib="2" flow="240.00" occupancy="4.33" speed="6.93" harmonicMeanSpeed="6.93" length="4.50" nVehEntered="2"/>
    <interval begin="1710.00" end="1740.00" id="0" nVehContrib="5" flow="600.00" occupancy="10.94" speed="6.86" harmonicMeanSpeed="6.86" length="4.50" nVehEntered="5"/>
    <interval begin="1740.00" end="1770.00" id="0" nVehContrib="1" flow="120.00" occupancy="2.18" speed="6.90" harmonicMeanSpeed="6.90" length="4.50" nVehEntered="1"/>
    <interval begin="1770.00" end="1800.00" id="0" nVehContrib="4" flow="480.00" occupancy="8.69" speed="6.90" harmonicMeanSpeed="6.90" length="4.50" nVehEntered="4"/>
    <interval begin="1800.00" end="1830.00" id="0" nVehContrib="2" flow="240.00" occupancy="4.30" speed="6.98" harmonicMeanSpeed="6.98" length="4.50" nVehEntered="2"/>
    <interval begin="1830.00" end="1860.00" id="0" nVehContrib="2" flow="240.00" occupancy="4.40" speed="6.82" harmonicMeanSpeed="6.82" length="4.50" nVehEntered="2"/>
    <interval begin="1860.00" end="1890.00" id="0" nVehContrib="1" flow="120.00" occupancy="2.19" speed="6.86" harmonicMeanSpeed="6.86" length="4.50" nVehEntered="1"/>
    <interval begin="1890.00" end="1920.00" id="0" nVehContrib="1" flow="120.00" occupancy="2.15" speed="6.98" harmonicMeanSpeed="6.98" length="4.50" nVehEntered="1"/>
    <interval begin="1920.00" end="1950.00" id="0" nVehContrib="0" flow="0.00" occupancy="0.00" speed="-1.00" harmonicMeanSpeed="-1.00" length="-1.00" nVehEntered="0"/>
    <interval begin="1950.00" end="1980.00" id="0" nVehContrib="2" flow="240.00" occupancy="4.36" speed="6.88" harmonicMeanSpeed="6.88" length="4.50" nVehEntered="2"/>
    <interval begin="1980.00" end="2010.00" id="0" nVehContrib="2" flow="240.00" occupancy="4.35" speed="6.90" harmonicMeanSpeed="6.90" length="4.50" nVehEntered="2"/>
    <interval begin="2010.00" end="2040.00" id="0" nVehContrib="0" flow="0.00" occupancy="0.00" speed="-1.00" harmonicMeanSpeed="-1.00" length="-1.00" nVehEntered="0"/>
    <interval begin="2040.00" end="2070.00" id="0" nVehContrib="1" flow="120.00" occupancy="2.19" speed="6.84" harmonicMeanSpeed="6.84" length="4.50" nVehEntered="1"/>
    <interval begin="2070.00" end="2100.00" id="0" nVehContrib="0" flow="0.00" occupancy="0.00" speed="-1.00" harmonicMeanSpeed="-1.00" length="-1.00" nVehEntered="0"/>
    <interval begin="2100.00" end="2130.00" id="0" nVehContrib="0" flow="0.00" occupancy="0.00" speed="-1.00" harmonicMeanSpeed="-1.00" length="-1.00" nVehEntered="0"/>
    <interval begin="2130.00" end="2160.00" id="0" nVehContrib="3" flow="360.00" occupancy="6.54" speed="6.88" harmonicMeanSpeed="6.88" length="4.50" nVehEntered="3"/>
    <interval begin="2160.00" end="2190.00" id="0" nVehContrib="4" flow="480.00" occupancy="8.70" speed="6.90" harmonicMeanSpeed="6.90" length="4.50" nVehEntered="4"/>
    <interval begin="2190.00" end="2220.00" id="0" nVehContrib="5" flow="600.00" occupancy="10.90" speed="6.88" harmonicMeanSpeed="6.88" length="4.50" nVehEntered="5"/>
    <interval begin="2220.00" end="2250.00" id="0" nVehContrib="3" flow="360.00" occupancy="6.55" speed="6.87" harmonicMeanSpeed="6.87" length="4.50" nVehEntered="3"/>
    <interval begin="2250.00" end="2280.00" id="0" nVehContrib="0" flow="0.00" occupancy="0.00" speed="-1.00" harmonicMeanSpeed="-1.00" length="-1.00" nVehEntered="0"/>
    <interval begin="2280.00" end="2310.00" id="0" nVehContrib="0" flow="0.00" occupancy="0.00" speed="-1.00" harmonicMeanSpeed="-1.00" length="-1.00" nVehEntered="0"/>
    <interval begin="2310.00" end="2340.00" id="0" nVehContrib="0" flow="0.00" occupancy="0.00" speed="-1.00" harmonicMeanSpeed="-1.00" length="-1.00" nVehEntered="0"/>
    <interval begin="2340.00" end="2370.00" id="0" nVehContrib="3" flow="360.00" occupancy="6.78" speed="6.89" harmonicMeanSpeed="6.89" length="4.50" nVehEntered="4"/>
    <interval begin="2370.00" end="2400.00" id="0" nVehContrib="4" flow="480.00" occupancy="8.47" speed="6.89" harmonicMeanSpeed="6.89" length="4.50" nVehEntered="3"/>
    <interval begin="2400.00" end="2430.00" id="0" nVehContrib="4" flow="480.00" occupancy="8.80" speed="6.82" harmonicMeanSpeed="6.82" length="4.50" nVehEntered="4"/>
    <interval begin="2430.00" end="2460.00" id="0" nVehContrib="5" flow="600.00" occupancy="10.93" speed="6.86" harmonicMeanSpeed="6.86" length="4.50" nVehEntered="5"/>
    <interval begin="2460.00" end="2490.00" id="0" nVehContrib="4" flow="480.00" occupancy="8.78" speed="6.83" harmonicMeanSpeed="6.83" length="4.50" nVehEntered="4"/>
    <interval begin="2490.00" end="2520.00" id="0" nVehContrib="3" flow="360.00" occupancy="6.52" speed="6.90" harmonicMeanSpeed="6.90" length="4.50" nVehEntered="3"/>
    <interval begin="2520.00" end="2550.00" id="0" nVehContrib="0" flow="0.00" occupancy="0.52" speed="-1.00" harmonicMeanSpeed="-1.00" length="-1.00" nVehEntered="1"/>
    <interval begin="2550.00" end="2580.00" id="0" nVehContrib="5" flow="600.00" occupancy="10.43" speed="6.85" harmonicMeanSpeed="6.85" length="4.50" nVehEntered="4"/>
    <interval begin="2580.00" end="2610.00" id="0" nVehContrib="5" flow="600.00" occupancy="10.91" speed="6.88" harmonicMeanSpeed="6.87" length="4.50" nVehEntered="5"/>
    <interval begin="2610.00" end="2640.00" id="0" nVehContrib="2" flow="240.00" occupancy="4.35" speed="6.90" harmonicMeanSpeed="6.90" length="4.50" nVehEntered="2"/>
    <interval begin="2640.00" end="2670.00" id="0" nVehContrib="5" flow="600.00" occupancy="12.69" speed="6.85" harmonicMeanSpeed="6.85" length="4.50" nVehEntered="6"/>
    <interval begin="2670.00" end="2700.00" id="0" nVehContrib="2" flow="240.00" occupancy="2.60" speed="6.91" harmonicMeanSpeed="6.91" length="4.50" nVehEntered="1"/>
    <interval begin="2700.00" end="2730.00" id="0" nVehContrib="0" flow="0.00" occupancy="0.00" speed="-1.00" harmonicMeanSpeed="-1.00" length="-1.00" nVehEntered="0"/>
    <interval begin="2730.00" end="2760.00" id="0" nVehContrib="0" flow="0.00" occupancy="0.00" speed="-1.00" harmonicMeanSpeed="-1.00" length="-1.00" nVehEntered="0"/>
    <interval begin="2760.00" end="2790.00" id="0" nVehContrib="2" flow="240.00" occupancy="4.38" speed="6.85" harmonicMeanSpeed="6.85" length="4.50" nVehEntered="2"/>
    <interval begin="2790.00" end="2820.00" id="0" nVehContrib="4" flow="480.00" occupancy="8.70" speed="6.89" harmonicMeanSpeed="6.89" length="4.50" nVehEntered="4"/>
    <interval begin="2820.00" end="2850.00" id="0" nVehContrib="2" flow="240.00" occupancy="4.35" speed="6.89" harmonicMeanSpeed="6.89" length="4.50" nVehEntered="2"/>
    <interval begin="2850.00" end="2880.00" id="0" nVehContrib="2" flow="240.00" occupancy="4.40" speed="6.82" harmonicMeanSpeed="6.82" length="4.50" nVehEntered="2"/>
    <interval begin="2880.00" end="2910.00" id="0" nVehContrib="1" flow="120.00" occupancy="2.20" speed="6.83" harmonicMeanSpeed="6.83" length="4.50" nVehEntered="1"/>
    <interval begin="2910.00" end="2940.00" id="0" nVehContrib="0" flow="0.00" occupancy="0.00" speed="-1.00" harmonicMeanSpeed="-1.00" length="-1.00" nVehEntered="0"/>
    <interval begin="2940.00" end="2970.00" id="0" nVehContrib="0" flow="0.00" occupancy="0.00" speed="-1.00" harmonicMeanSpeed="-1.00" length="-1.00" nVehEntered="0"/>
    <interval begin="2970.00" end="3000.00" id="0" nVehContrib="0" flow="0.00" occupancy="0.00" speed="-1.00" harmonicMeanSpeed="-1.00" length="-1.00" nVehEntered="0"/>
    <interval begin="3000.00" end="3030.00" id="0" nVehContrib="0" flow="0.00" occupancy="0.00" speed="-1.00" harmonicMeanSpeed="-1.00" length="-1.00" nVehEntered="0"/>
    <interval begin="3030.00" end="3060.00" id="0" nVehContrib="0" flow="0.00" occupancy="0.00" speed="-1.00" harmonicMeanSpeed="-1.00" length="-1.00" nVehEntered="0"/>
    <interval begin="3060.00" end="3090.00" id="0" nVehContrib="0" flow="0.00" occupancy="0.00" speed="-1.00" harmonicMeanSpeed="-1.00" length="-1.00" nVehEntered="0"/>
    <interval begin="3090.00" end="3120.00" id="0" nVehContrib="0" flow="0.00" occupancy="0.00" speed="-1.00" harmonicMeanSpeed="-1.00" length="-1.00" nVehEntered="0"/>
    <interval begin="3120.00" end="3150.00" id="0" nVehContrib="0" flow="0.00" occupancy="0.00" speed="-1.00" harmonicMeanSpeed="-1.00" length="-1.00" nVehEntered="0"/>
    <interval begin="3150.00" end="3180.00" id="0" nVehContrib="0" flow="0.00" occupancy="0.00" speed="-1.00" harmonicMeanSpeed="-1.00" length="-1.00" nVehEntered="0"/>
    <interval begin="3180.00" end="3210.00" id="0" nVehContrib="1" flow="120.00" occupancy="2.20" speed="6.82" harmonicMeanSpeed="6.82" length="4.50" nVehEntered="1"/>
    <interval begin="3210.00" end="3240.00" id="0" nVehContrib="0" flow="0.00" occupancy="0.00" speed="-1.00" harmonicMeanSpeed="-1.00" length="-1.00" nVehEntered="0"/>
    <interval begin="3240.00" end="3270.00" id="0" nVehContrib="0" flow="0.00" occupancy="0.00" speed="-1.00" harmonicMeanSpeed="-1.00" length="-1.00" nVehEntered="0"/>
    <interval begin="3270.00" end="3300.00" id="0" nVehContrib="0" flow="0.00" occupancy="0.00" speed="-1.00" harmonicMeanSpeed="-1.00" length="-1.00" nVehEntered="0"/>
    <interval begin="3300.00" end="3330.00" id="0" nVehContrib="0" flow="0.00" occupancy="0.00" speed="-1.00" harmonicMeanSpeed="-1.00" length="-1.00" nVehEntered="0"/>
    <interval begin="3330.00" end="3360.00" id="0" nVehContrib="1" flow="120.00" occupancy="2.16" speed="6.93" harmonicMeanSpeed="6.93" length="4.50" nVehEntered="1"/>
    <interval begin="3360.00" end="3390.00" id="0" nVehContrib="0" flow="0.00" occupancy="0.00" speed="-1.00" harmonicMeanSpeed="-1.00" length="-1.00" nVehEntered="0"/>
    <interval begin="3390.00" end="3420.00" id="0" nVehContrib="0" flow="0.00" occupancy="0.00" speed="-1.00" harmonicMeanSpeed="-1.00" length="-1.00" nVehEntered="0"/>
    <interval begin="3420.00" end="3450.00" id="0" nVehContrib="0" flow="0.00" occupancy="0.00" speed="-1.00" harmonicMeanSpeed="-1.00" length="-1.00" nVehEntered="0"/>
    <interval begin="3450.00" end="3480.00" id="0" nVehContrib="2" flow="240.00" occupancy="5.76" speed="6.88" harmonicMeanSpeed="6.88" length="4.50" nVehEntered="3"/>
    <interval begin="3480.00" end="3510.00" id="0" nVehContrib="5" flow="600.00" occupancy="9.55" speed="6.85" harmonicMeanSpeed="6.85" length="4.50" nVehEntered="4"/>
    <interval begin="3510.00" end="3540.00" id="0" nVehContrib="1" flow="120.00" occupancy="2.19" speed="6.84" harmonicMeanSpeed="6.84" length="4.50" nVehEntered="1"/>
    <interval begin="3540.00" end="3570.00" id="0" nVehContrib="4" flow="480.00" occupancy="8.72" speed="6.88" harmonicMeanSpeed="6.88" length="4.50" nVehEntered="4"/>
    <interval begin="3570.00" end="3600.00" id="0" nVehContrib="8" flow="960.00" occupancy="17.39" speed="6.90" harmonicMeanSpeed="6.90" length="4.50" nVehEntered="8"/>
    <interval begin="3600.00" end="3630.00" id="0" nVehContrib="5" flow="600.00" occupancy="10.88" speed="6.89" harmonicMeanSpeed="6.89" length="4.50" nVehEntered="5"/>
    <interval begin="3630.00" end="3660.00" id="0" nVehContrib="3" flow="360.00" occupancy="6.53" speed="6.89" harmonicMeanSpeed="6.89" length="4.50" nVehEntered="3"/>
    <interval begin="3660.00" end="3690.00" id="0" nVehContrib="5" flow="600.00" occupancy="10.88" speed="6.90" harmonicMeanSpeed="6.90" length="4.50" nVehEntered="5"/>
    <interval begin="3690.00" end="3720.00" id="0" nVehContrib="2" flow="240.00" occupancy="4.36" speed="6.88" harmonicMeanSpeed="6.88" length="4.50" nVehEntered="2"/>
    <interval begin="3720.00" end="3750.00" id="0" nVehContrib="2" flow="240.00" occupancy="4.39" speed="6.83" harmonicMeanSpeed="6.83" length="4.50" nVehEntered="2"/>
    <interval begin="3750.00" end="3780.00" id="0" nVehContrib="0" flow="0.00" occupancy="0.00" speed="-1.00" harmonicMeanSpeed="-1.00" length="-1.00" nVehEntered="0"/>
    <interval begin="3780.00" end="3810.00" id="0" nVehContrib="5" flow="600.00" occupancy="11.00" speed="6.82" harmonicMeanSpeed="6.82" length="4.50" nVehEntered="5"/>
    <interval begin="3810.00" end="3840.00" id="0" nVehContrib="1" flow="120.00" occupancy="2.20" speed="6.81" harmonicMeanSpeed="6.81" length="4.50" nVehEntered="1"/>
    <interval begin="3840.00" end="3870.00" id="0" nVehContrib="3" flow="360.00" occupancy="6.60" speed="6.82" harmonicMeanSpeed="6.82" length="4.50" nVehEntered="3"/>
    <interval begin="3870.00" end="3900.00" id="0" nVehContrib="5" flow="600.00" occupancy="10.92" speed="6.87" harmonicMeanSpeed="6.87" length="4.50" nVehEntered="5"/>
    <interval begin="3900.00" end="3930.00" id="0" nVehContrib="0" flow="0.00" occupancy="0.00" speed="-1.00" harmonicMeanSpeed="-1.00" length="-1.00" nVehEntered="0"/>
    <interval begin="3930.00" end="3960.00" id="0" nVehContrib="0" flow="0.00" occupancy="0.00" speed="-1.00" harmonicMeanSpeed="-1.00" length="-1.00" nVehEntered="0"/>
    <interval begin="3960.00" end="3990.00" id="0" nVehContrib="0" flow="0.00" occupancy="0.00" speed="-1.00" harmonicMeanSpeed="-1.00" length="-1.00" nVehEntered="0"/>
    <interval begin="3990.00" end="4020.00" id="0" nVehContrib="0" flow="0.00" occupancy="0.00" speed="-1.00" harmonicMeanSpeed="-1.00" length="-1.00" nVehEntered="0"/>
    <interval begin="4020.00" end="4050.00" id="0" nVehContrib="4" flow="480.00" occupancy="8.68" speed="6.91" harmonicMeanSpeed="6.91" length="4.50" nVehEntered="4"/>
    <interval begin="4050.00" end="4080.00" id="0" nVehContrib="3" flow="360.00" occupancy="6.58" speed="6.84" harmonicMeanSpeed="6.84" length="4.50" nVehEntered="3"/>
    <interval begin="4080.00" end="4110.00" id="0" nVehContrib="2" flow="240.00" occupancy="4.37" speed="6.86" harmonicMeanSpeed="6.86" length="4.50" nVehEntered="2"/>
    <interval begin="4110.00" end="4140.00" id="0" nVehContrib="2" flow="240.00" occupancy="4.35" speed="6.89" harmonicMeanSpeed="6.89" length="4.50" nVehEntered="2"/>
    <interval begin="4140.00" end="4170.00" id="0" nVehContrib="1" flow="120.00" occupancy="2.18" speed="6.90" harmonicMeanSpeed="6.90" length="4.50" nVehEntered="1"/>
    <interval begin="4170.00" end="4200.00" id="0" nVehContrib="0" flow="0.00" occupancy="0.00" speed="-1.00" harmonicMeanSpeed="-1.00" length="-1.00" nVehEntered="0"/>
    <interval begin="4200.00" end="4230.00" id="0" nVehContrib="0" flow="0.00" occupancy="0.00" speed="-1.00" harmonicMeanSpeed="-1.00" length="-1.00" nVehEntered="0"/>
    <interval begin="4230.00" end="4260.00" id="0" nVehContrib="3" flow="360.00" occupancy="6.54" speed="6.88" harmonicMeanSpeed="6.88" length="4.50" nVehEntered="3"/>
    <interval begin="4260.00" end="4290.00" id="0" nVehContrib="3" flow="360.00" occupancy="6.49" speed="6.93" harmonicMeanSpeed="6.93" length="4.50" nVehEntered="3"/>
    <interval begin="4290.00" end="4320.00" id="0" nVehContrib="2" flow="240.00" occupancy="4.36" speed="6.89" harmonicMeanSpeed="6.89" length="4.50" nVehEntered="2"/>
    <interval begin="4320.00" end="4350.00" id="0" nVehContrib="0" flow="0.00" occupancy="0.00" speed="-1.00" harmonicMeanSpeed="-1.00" length="-1.00" nVehEntered="0"/>
    <interval begin="4350.00" end="4380.00" id="0" nVehContrib="0" flow="0.00" occupancy="0.00