<?xml version="1.0" encoding="UTF-8"?>

<!-- generated on 2021-05-27 22:48:20 by Eclipse SUMO GUI Version 1.9.2
<configuration xmlns:xsi="http://www.w3.org/2001/XMLSchema-instance" xsi:noNamespaceSchemaLocation="http://sumo.dlr.de/xsd/sumoConfiguration.xsd">

    <input>
        <net-file value="data/cross.net.xml"/>
        <route-files value="data/cross.rou.xml"/>
        <additional-files value="data/cross.det.xml"/>
    </input>

    <output>
        <tripinfo-output value="tripinfo.xml"/>
    </output>

    <time>
        <begin value="0"/>
        <step-length value=".5"/>
    </time>

    <processing>
        <collision.action value="none"/>
        <collision.mingap-factor value="0"/>
        <time-to-teleport value="-1"/>
        <time-to-teleport.highways value="-1"/>
    </processing>

    <report>
        <verbose value="true"/>
        <no-step-log value="true"/>
    </report>

    <traci_server>
        <remote-port value="51967"/>
    </traci_server>

    <gui_only>
        <tracker-interval value="0.5"/>
    </gui_only>

</configuration>
-->

<detector xmlns:xsi="http://www.w3.org/2001/XMLSchema-instance" xsi:noNamespaceSchemaLocation="http://sumo.dlr.de/xsd/det_e1_file.xsd">
    <interval begin="0.00" end="30.00" id="0" nVehContrib="0" flow="0.00" occupancy="0.00" speed="-1.00" harmonicMeanSpeed="-1.00" length="-1.00" nVehEntered="0"/>
    <interval begin="30.00" end="60.00" id="0" nVehContrib="3" flow="360.00" occupancy="6.53" speed="6.89" harmonicMeanSpeed="6.89" length="4.50" nVehEntered="3"/>
    <interval begin="60.00" end="90.00" id="0" nVehContrib="9" flow="1080.00" occupancy="19.88" speed="6.88" harmonicMeanSpeed="6.88" length="4.50" nVehEntered="10"/>
    <interval begin="90.00" end="120.00" id="0" nVehContrib="9" flow="1080.00" occupancy="20.90" speed="6.85" harmonicMeanSpeed="6.85" length="4.50" nVehEntered="9"/>
    <interval begin="120.00" end="150.00" id="0" nVehContrib="10" flow="1200.00" occupancy="20.42" speed="6.86" harmonicMeanSpeed="6.86" length="4.50" nVehEntered="9"/>
    <interval begin="150.00" end="180.00" id="0" nVehContrib="9" flow="1080.00" occupancy="19.67" speed="6.86" harmonicMeanSpeed="6.86" length="4.50" nVehEntered="9"/>
    <interval begin="180.00" end="210.00" id="0" nVehContrib="9" flow="1080.00" occupancy="20.21" speed="6.88" harmonicMeanSpeed="6.88" length="4.50" nVehEntered="10"/>
    <interval begin="210.00" end="240.00" id="0" nVehContrib="10" flow="1200.00" occupancy="21.30" speed="6.86" harmonicMeanSpeed="6.86" length="4.50" nVehEntered="9"/>
    <interval begin="240.00" end="270.00" id="0" nVehContrib="9" flow="1080.00" occupancy="19.52" speed="6.92" harmonicMeanSpeed="6.92" length="4.50" nVehEntered="9"/>
    <interval begin="270.00" end="300.00" id="0" nVehContrib="10" flow="1200.00" occupancy="21.87" speed="6.86" harmonicMeanSpeed="6.86" length="4.50" nVehEntered="10"/>
    <interval begin="300.00" end="330.00" id="0" nVehContrib="9" flow="1080.00" occupancy="19.59" speed="6.89" harmonicMeanSpeed="6.89" length="4.50" nVehEntered="9"/>
    <interval begin="330.00" end="360.00" id="0" nVehContrib="9" flow="1080.00" occupancy="19.71" speed="6.85" harmonicMeanSpeed="6.85" length="4.50" nVehEntered="9"/>
    <interval begin="360.00" end="390.00" id="0" nVehContrib="9" flow="1080.00" occupancy="20.54" speed="6.86" harmonicMeanSpeed="6.86" length="4.50" nVehEntered="10"/>
    <interval begin="390.00" end="420.00" id="0" nVehContrib="10" flow="1200.00" occupancy="20.85" speed="6.91" harmonicMeanSpeed="6.91" length="4.50" nVehEntered="9"/>
    <interval begin="420.00" end="450.00" id="0" nVehContrib="9" flow="1080.00" occupancy="19.55" speed="6.91" harmonicMeanSpeed="6.91" length="4.50" nVehEntered="9"/>
    <interval begin="450.00" end="480.00" id="0" nVehContrib="9" flow="1080.00" occupancy="19.89" speed="6.86" harmonicMeanSpeed="6.86" length="4.50" nVehEntered="10"/>
    <interval begin="480.00" end="510.00" id="0" nVehContrib="10" flow="1200.00" occupancy="21.61" speed="6.87" harmonicMeanSpeed="6.87" length="4.50" nVehEntered="9"/>
    <interval begin="510.00" end="540.00" id="0" nVehContrib="9" flow="1080.00" occupancy="19.67" speed="6.86" harmonicMeanSpeed="6.86" length="4.50" nVehEntered="9"/>
    <interval begin="540.00" end="570.00" id="0" nVehContrib="9" flow="1080.00" occupancy="21.07" speed="6.88" harmonicMeanSpeed="6.88" length="4.50" nVehEntered="10"/>
    <interval begin="570.00" end="600.00" id="0" nVehContrib="10" flow="1200.00" occupancy="20.43" speed="6.86" harmonicMeanSpeed="6.86" length="4.50" nVehEntered="9"/>
    <interval begin="600.00" end="630.00" id="0" nVehContrib="9" flow="1080.00" occupancy="19.61" speed="6.89" harmonicMeanSpeed="6.88" length="4.50" nVehEntered="9"/>
    <interval begin="630.00" end="660.00" id="0" nVehContrib="9" flow="1080.00" occupancy="19.59" speed="6.89" harmonicMeanSpeed="6.89" length="4.50" nVehEntered="9"/>
    <interval begin="660.00" end="690.00" id="0" nVehContrib="6" flow="720.00" occupancy="14.27" speed="6.37" harmonicMeanSpeed="6.31" length="4.50" nVehEntered="6"/>
    <interval begin="690.00" end="720.00" id="0" nVehContrib="6" flow="720.00" occupancy="27.77" speed="3.69" harmonicMeanSpeed="3.24" length="4.50" nVehEntered="6"/>
    <interval begin="720.00" end="750.00" id="0" nVehContrib="5" flow="600.00" occupancy="48.99" speed="2.45" harmonicMeanSpeed="2.13" length="4.50" nVehEntered="6"/>
    <interval begin="750.00" end="780.00" id="0" nVehContrib="6" flow="720.00" occupancy="63.42" speed="1.47" harmonicMeanSpeed="1.36" length="4.50" nVehEntered="6"/>
    <interval begin="780.00" end="810.00" id="0" nVehContrib="5" flow="600.00" occupancy="66.28" speed="1.22" harmonicMeanSpeed="1.02" length="4.50" nVehEntered="5"/>
    <interval begin="810.00" end="840.00" id="0" nVehContrib="6" flow="720.00" occupancy="65.51" speed="1.39" harmonicMeanSpeed="1.31" length="4.50" nVehEntered="5"/>
    <interval begin="840.00" end="870.00" id="0" nVehContrib="6" flow="720.00" occupancy="65.73" speed="1.51" harmonicMeanSpeed="1.37" length="4.50" nVehEntered="6"/>
    <interval begin="870.00" end="900.00" id="0" nVehContrib="5" flow="600.00" occupancy="62.50" speed="1.31" harmonicMeanSpeed="1.25" length="4.50" nVehEntered="6"/>
    <interval begin="900.00" end="930.00" id="0" nVehContrib="5" flow="600.00" occupancy="69.24" speed="1.31" harmonicMeanSpeed="1.26" length="4.50" nVehEntered="5"/>
    <interval begin="930.00" end="960.00" id="0" nVehContrib="6" flow="720.00" occupancy="63.72" speed="1.47" harmonicMeanSpeed="1.33" length="4.50" nVehEntered="6"/>
    <interval begin="960.00" end="990.00" id="0" nVehContrib="5" flow="600.00" occupancy="66.86" speed="1.30" harmonicMeanSpeed="1.24" length="4.50" nVehEntered="5"/>
    <interval begin="990.00" end="1020.00" id="0" nVehContrib="5" flow="600.00" occupancy="64.69" speed="0.99" harmonicMeanSpeed="0.98" length="4.50" nVehEntered="5"/>
    <interval begin="1020.00" end="1050.00" id="0" nVehContrib="6" flow="720.00" occupancy="64.19" speed="1.41" harmonicMeanSpeed="1.40" length="4.50" nVehEntered="6"/>
    <interval begin="1050.00" end="1080.00" id="0" nVehContrib="4" flow="480.00" occupancy="70.87" speed="0.91" harmonicMeanSpeed="0.90" length="4.50" nVehEntered="4"/>
    <interval begin="1080.00" end="1110.00" id="0" nVehContrib="5" flow="600.00" occupancy="38.68" speed="1.68" harmonicMeanSpeed="1.64" length="4.50" nVehEntered="4"/>
    <interval begin="1110.00" end="1140.00" id="0" nVehContrib="0" flow="0.00" occupancy="0.00" speed="-1.00" harmonicMeanSpeed="-1.00" length="-1.00" nVehEntered="0"/>
    <interval begin="1140.00" end="1170.00" id="0" nVehContrib="0" flow="0.00" occupancy="0.00" speed="-1.00" harmonicMeanSpeed="-1.00" length="-1.00" nVehEntered="0"/>
    <interval begin="1170.00" end="1200.00" id="0" nVehContrib="0" flow="0.00" occupancy="0.00" speed="-1.00" harmonicMeanSpeed="-1.00" length="-1.00" nVehEntered="0"/>
    <interval begin="1200.00" end="1230.00" id="0" nVehContrib="0" flow="0.00" occupancy="0.00" speed="-1.00" harmonicMeanSpeed="-1.00" length="-1.00" nVehEntered="0"/>
    <interval begin="1230.00" end="1260.00" id="0" nVehContrib="0" flow="0.00" occupancy="0.00" speed="-1.00" harmonicMeanSpeed="-1.00" length="-1.00" nVehEntered="0"/>
    <interval begin="1260.00" end="1290.00" id="0" nVehContrib="0" flow="0.00" occupancy="0.00" speed="-1.00" harmonicMeanSpeed="-1.00" length="-1.00" nVehEntered="0"/>
    <interval begin="1290.00" end="1320.00" id="0" nVehContrib="0" flow="0.00" occupancy="0.00" speed="-1.00" harmonicMeanSpeed="-1.00" length="-1.00" nVehEntered="0"/>
    <interval begin="1320.00" end="1350.00" id="0" nVehContrib="0" flow="0.00" occupancy="0.00" speed="-1.00" harmonicMeanSpeed="-1.00" length="-1.00" nVehEntered="0"/>
    <interval begin="1350.00" end="1380.00" id="0" nVehContrib="0" flow="0.00" occupancy="0.00" speed="-1.00" harmonicMeanSpeed="-1.00" length="-1.00" nVehEntered="0"/>
    <interval begin="1380.00" end="1410.00" id="0" nVehContrib="0" flow="0.00" occupancy="0.00" speed="-1.00" harmonicMeanSpeed="-1.00" length="-1.00" nVehEntered="0"/>
    <interval begin="1410.00" end="1440.00" id="0" nVehContrib="0" flow="0.00" occupancy="0.00" speed="-1.00" harmonicMeanSpeed="-1.00" length="-1.00" nVehEntered="0"/>
    <interval begin="1440.00" end="1470.00" id="0" nVehContrib="0" flow="0.00" occupancy="0.00" speed="-1.00" harmonicMeanSpeed="-1.00" length="-1.00" nVehEntered="0"/>
    <interval begin="1470.00" end="1500.00" id="0" nVehContrib="0" flow="0.00" occupancy="0.00" speed="-1.00" harmonicMeanSpeed="-1.00" length="-1.00" nVehEntered="0"/>
    <interval begin="1500.00" end="1530.00" id="0" nVehContrib="2" flow="240.00" occupancy="4.33" speed="6.93" harmonicMeanSpeed="6.93" length="4.50" nVehEntered="2"/>
    <interval begin="1530.00" end="1560.00" id="0" nVehContrib="7" flow="840.00" occupancy="15.34" speed="6.84" harmonicMeanSpeed="6.84" length="4.50" nVehEntered="7"/>
    <interval begin="1560.00" end="1590.00" id="0" nVehContrib="5" flow="600.00" occupancy="10.92" speed="6.87" harmonicMeanSpeed="6.87" length="4.50" nVehEntered="5"/>
    <interval begin="1590.00" end="1620.00" id="0" nVehContrib="0" flow="0.00" occupancy="0.00" speed="-1.00" harmonicMeanSpeed="-1.00" length="-1.00" nVehEntered="0"/>
    <interval begin="1620.00" end="1650.00" id="0" nVehContrib="0" flow="0.00" occupancy="0.00" speed="-1.00" harmonicMeanSpeed="-1.00" length="-1.00" nVehEntered="0"/>
    <interval begin="1650.00" end="1680.00" id="0" nVehContrib="0" flow="0.00" occupancy="0.00" speed="-1.00" harmonicMeanSpeed="-1.00" length="-1.00" nVehEntered="0"/>
    <interval begin="1680.00" end="1710.00" id="0" nVehContrib="0" flow="0.00" occupancy="0.00" speed="-1.00" harmonicMeanSpeed="-1.00" length="-1.00" nVehEntered="0"/>
    <interval begin="1710.00" end="1740.00" id="0" nVehContrib="0" flow="0.00" occupancy="0.00" speed="-1.00" harmonicMeanSpeed="-1.00" length="-1.00" nVehEntered="0"/>
    <interval begin="1740.00" end="1770.00" id="0" nVehContrib="7" flow="840.00" occupancy="15.31" speed="6.86" harmonicMeanSpeed="6.86" length="4.50" nVehEntered="7"/>
    <interval begin="1770.00" end="1800.00" id="0" nVehContrib="3" flow="360.00" occupancy="6.56" speed="6.86" harmonicMeanSpeed="6.86" length="4.50" nVehEntered="3"/>
    <interval begin="1800.00" end="1830.00" id="0" nVehContrib="0" flow="0.00" occupancy="0.00" speed="-1.00" harmonicMeanSpeed="-1.00" length="-1.00" nVehEntered="0"/>
    <interval begin="1830.00" end="1860.00" id="0" nVehContrib="0" flow="0.00" occupancy="0.00" speed="-1.00" harmonicMeanSpeed="-1.00" length="-1.00" nVehEntered="0"/>
    <interval begin="1860.00" end="1890.00" id="0" nVehContrib="0" flow="0.00" occupancy="0.00" speed="-1.00" harmonicMeanSpeed="-1.00" length="-1.00" nVehEntered="0"/>
    <interval begin="1890.00" end="1920.00" id="0" nVehContrib="0" flow="0.00" occupancy="0.00" speed="-1.00" harmonicMeanSpeed="-1.00" length="-1.00" nVehEntered="0"/>
    <interval begin="1920.00" end="1950.00" id="0" nVehContrib="0" flow="0.00" occupancy="0.00" speed="-1.00" harmonicMeanSpeed="-1.00" length="-1.00" nVehEntered="0"/>
    <interval begin="1950.00" end="1980.00" id="0" nVehContrib="1" flow="120.00" occupancy="2.18" speed="6.87" harmonicMeanSpeed="6.87" length="4.50" nVehEntered="1"/>
    <interval begin="1980.00" end="2010.00" id="0" nVehContrib="4" flow="480.00" occupancy="8.75" speed="6.89" harmonicMeanSpeed="6.89" length="4.50" nVehEntered="5"/>
    <interval begin="2010.00" end="2040.00" id="0" nVehContrib="6" flow="720.00" occupancy="15.28" speed="6.87" harmonicMeanSpeed="6.87" length="4.50" nVehEntered="7"/>
    <interval begin="2040.00" end="2070.00" id="0" nVehContrib="2" flow="240.00" occupancy="2.19" speed="6.87" harmonicMeanSpeed="6.87" length="4.50" nVehEntered="1"/>
    <interval begin="2070.00" end="2100.00" id="0" nVehContrib="0" flow="0.00" occupancy="0.00" speed="-1.00" harmonicMeanSpeed="-1.00" length="-1.00" nVehEntered="0"/>
    <interval begin="2100.00" end="2130.00" id="0" nVehContrib="0" flow="0.00" occupancy="0.00" speed="-1.00" harmonicMeanSpeed="-1.00" length="-1.00" nVehEntered="0"/>
    <interval begin="2130.00" end="2160.00" id="0" nVehContrib="0" flow="0.00" occupancy="0.00" speed="-1.00" harmonicMeanSpeed="-1.00" length="-1.00" nVehEntered="0"/>
    <interval begin="2160.00" end="2190.00" id="0" nVehContrib="0" flow="0.00" occupancy="0.00" speed="-1.00" harmonicMeanSpeed="-1.00" length="-1.00" nVehEntered="0"/>
    <interval begin="2190.00" end="2220.00" id="0" nVehContrib="5" flow="600.00" occupancy="10.90" speed="6.88" harmonicMeanSpeed="6.88" length="4.50" nVehEntered="5"/>
    <interval begin="2220.00" end="2246.50" id="0" nVehContrib="7" flow="950.94" occupancy="19.50" speed="6.88" harmonicMeanSpeed="6.88" length="4.50" nVehEntered="8"/>
</detector>
