<?xml version="1.0" encoding="UTF-8"?>

<!-- generated on 2021-05-25 23:11:03 by Eclipse SUMO sumo Version 1.9.2
<configuration xmlns:xsi="http://www.w3.org/2001/XMLSchema-instance" xsi:noNamespaceSchemaLocation="http://sumo.dlr.de/xsd/sumoConfiguration.xsd">

    <input>
        <net-file value="data/cross.net.xml"/>
        <route-files value="data/cross.rou.xml"/>
        <additional-files value="data/cross.det.xml"/>
    </input>

    <output>
        <tripinfo-output value="tripinfo.xml"/>
    </output>

    <time>
        <begin value="0"/>
        <step-length value=".5"/>
    </time>

    <processing>
        <collision.action value="none"/>
        <collision.mingap-factor value="0"/>
        <time-to-teleport value="-1"/>
        <time-to-teleport.highways value="-1"/>
        <time-to-teleport.disconnected value="-1"/>
    </processing>

    <report>
        <verbose value="true"/>
        <no-step-log value="true"/>
    </report>

    <traci_server>
        <remote-port value="52697"/>
    </traci_server>

    <gui_only>
        <tracker-interval value="0.5"/>
    </gui_only>

</configuration>
-->

<detector xmlns:xsi="http://www.w3.org/2001/XMLSchema-instance" xsi:noNamespaceSchemaLocation="http://sumo.dlr.de/xsd/det_e1_file.xsd">
    <interval begin="0.00" end="30.00" id="0" nVehContrib="0" flow="0.00" occupancy="0.00" speed="-1.00" harmonicMeanSpeed="-1.00" length="-1.00" nVehEntered="0"/>
    <interval begin="30.00" end="60.00" id="0" nVehContrib="1" flow="120.00" occupancy="2.21" speed="6.80" harmonicMeanSpeed="6.80" length="4.50" nVehEntered="1"/>
    <interval begin="60.00" end="90.00" id="0" nVehContrib="5" flow="600.00" occupancy="10.87" speed="6.90" harmonicMeanSpeed="6.90" length="4.50" nVehEntered="5"/>
    <interval begin="90.00" end="120.00" id="0" nVehContrib="7" flow="840.00" occupancy="15.30" speed="6.86" harmonicMeanSpeed="6.86" length="4.50" nVehEntered="7"/>
    <interval begin="120.00" end="150.00" id="0" nVehContrib="6" flow="720.00" occupancy="14.94" speed="6.83" harmonicMeanSpeed="6.83" length="4.50" nVehEntered="7"/>
    <interval begin="150.00" end="180.00" id="0" nVehContrib="8" flow="960.00" occupancy="15.71" speed="6.87" harmonicMeanSpeed="6.87" length="4.50" nVehEntered="7"/>
    <interval begin="180.00" end="210.00" id="0" nVehContrib="8" flow="960.00" occupancy="17.44" speed="6.88" harmonicMeanSpeed="6.88" length="4.50" nVehEntered="8"/>
    <interval begin="210.00" end="240.00" id="0" nVehContrib="6" flow="720.00" occupancy="13.10" speed="6.87" harmonicMeanSpeed="6.87" length="4.50" nVehEntered="6"/>
    <interval begin="240.00" end="270.00" id="0" nVehContrib="7" flow="840.00" occupancy="15.21" speed="6.91" harmonicMeanSpeed="6.91" length="4.50" nVehEntered="7"/>
    <interval begin="270.00" end="300.00" id="0" nVehContrib="6" flow="720.00" occupancy="13.12" speed="6.86" harmonicMeanSpeed="6.86" length="4.50" nVehEntered="6"/>
    <interval begin="300.00" end="330.00" id="0" nVehContrib="5" flow="600.00" occupancy="10.86" speed="6.91" harmonicMeanSpeed="6.91" length="4.50" nVehEntered="5"/>
    <interval begin="330.00" end="360.00" id="0" nVehContrib="7" flow="840.00" occupancy="15.31" speed="6.86" harmonicMeanSpeed="6.86" length="4.50" nVehEntered="7"/>
</detector>
