<?xml version="1.0" encoding="UTF-8"?>

<!-- generated on 2021-06-01 00:47:20 by Eclipse SUMO GUI Version 1.9.2
<configuration xmlns:xsi="http://www.w3.org/2001/XMLSchema-instance" xsi:noNamespaceSchemaLocation="http://sumo.dlr.de/xsd/sumoConfiguration.xsd">

    <input>
        <net-file value="data/cross.net.xml"/>
        <route-files value="data/cross.rou.xml"/>
        <additional-files value="data/cross.det.xml"/>
    </input>

    <output>
        <tripinfo-output value="tripinfo.xml"/>
    </output>

    <time>
        <begin value="0"/>
        <step-length value=".5"/>
    </time>

    <processing>
        <collision.action value="none"/>
        <collision.mingap-factor value="0"/>
        <time-to-teleport value="-1"/>
        <time-to-teleport.highways value="-1"/>
    </processing>

    <report>
        <verbose value="true"/>
        <no-step-log value="true"/>
    </report>

    <traci_server>
        <remote-port value="49837"/>
    </traci_server>

    <gui_only>
        <tracker-interval value="0.5"/>
    </gui_only>

</configuration>
-->

<detector xmlns:xsi="http://www.w3.org/2001/XMLSchema-instance" xsi:noNamespaceSchemaLocation="http://sumo.dlr.de/xsd/det_e1_file.xsd">
    <interval begin="0.00" end="30.00" id="0" nVehContrib="0" flow="0.00" occupancy="0.00" speed="-1.00" harmonicMeanSpeed="-1.00" length="-1.00" nVehEntered="0"/>
    <interval begin="30.00" end="60.00" id="0" nVehContrib="3" flow="360.00" occupancy="6.53" speed="6.89" harmonicMeanSpeed="6.89" length="4.50" nVehEntered="3"/>
    <interval begin="60.00" end="90.00" id="0" nVehContrib="9" flow="1080.00" occupancy="19.88" speed="6.88" harmonicMeanSpeed="6.88" length="4.50" nVehEntered="10"/>
    <interval begin="90.00" end="120.00" id="0" nVehContrib="9" flow="1080.00" occupancy="20.81" speed="6.88" harmonicMeanSpeed="6.88" length="4.50" nVehEntered="9"/>
    <interval begin="120.00" end="123.00" id="0" nVehContrib="1" flow="1200.00" occupancy="9.30" speed="6.86" harmonicMeanSpeed="6.86" length="4.50" nVehEntered="1"/>
</detector>
