<?xml version="1.0" encoding="UTF-8"?>

<!-- generated on Tue Jun  1 23:04:27 2021 by Eclipse SUMO sumo Version v1_8_0+0922-7b2bbb9a60
<configuration xmlns:xsi="http://www.w3.org/2001/XMLSchema-instance" xsi:noNamespaceSchemaLocation="http://sumo.dlr.de/xsd/sumoConfiguration.xsd">

    <input>
        <net-file value="2way-single-intersection/single-intersection.net.xml"/>
        <route-files value="2way-single-intersection/single-intersection-vhvh.rou.xml"/>
    </input>

    <output>
        <tripinfo-output value="tripinfo.xml"/>
    </output>

    <time>
        <step-length value=".5"/>
    </time>

    <processing>
        <collision.action value="none"/>
        <collision.mingap-factor value="0"/>
        <time-to-teleport value="-1"/>
        <time-to-teleport.highways value="-1"/>
    </processing>

    <traci_server>
        <remote-port value="45885"/>
    </traci_server>

    <gui_only>
        <tracker-interval value="0.5"/>
    </gui_only>

</configuration>
-->

<tripinfos xmlns:xsi="http://www.w3.org/2001/XMLSchema-instance" xsi:noNamespaceSchemaLocation="http://sumo.dlr.de/xsd/tripinfo_file.xsd">
    <tripinfo id="flow_ew.0" depart="0.00" departLane="e_t_0" departPos="5.10" departSpeed="14.04" departDelay="0.00" arrival="43.00" arrivalLane="t_w_0" arrivalPos="139.67" arrivalSpeed="6.92" duration="43.00" routeLength="294.97" waitingTime="0.00" waitingCount="0" stopTime="0.00" timeLoss="0.45" rerouteNo="0" devices="tripinfo_flow_ew.0" vType="DEFAULT_VEHTYPE@flow_ew.0" speedFactor="1.01" vaporized=""/>
    <tripinfo id="flow_sn.0" depart="0.00" departLane="s_t_0" departPos="5.10" departSpeed="13.04" departDelay="0.00" arrival="43.50" arrivalLane="t_n_0" arrivalPos="139.50" arrivalSpeed="6.89" duration="43.50" routeLength="294.90" waitingTime="0.00" waitingCount="0" stopTime="0.00" timeLoss="1.18" rerouteNo="0" devices="tripinfo_flow_sn.0" vType="DEFAULT_VEHTYPE@flow_sn.0" speedFactor="0.94" vaporized=""/>
    <tripinfo id="flow_we.0" depart="0.00" departLane="w_t_0" departPos="5.10" departSpeed="15.05" departDelay="0.00" arrival="45.50" arrivalLane="t_e_0" arrivalPos="139.60" arrivalSpeed="6.90" duration="45.50" routeLength="294.97" waitingTime="0.00" waitingCount="0" stopTime="0.00" timeLoss="2.92" rerouteNo="0" devices="tripinfo_flow_we.0" vType="DEFAULT_VEHTYPE@flow_we.0" speedFactor="1.08" vaporized=""/>
    <tripinfo id="flow_sn.1" depart="7.50" departLane="s_t_0" departPos="5.10" departSpeed="14.54" departDelay="0.30" arrival="50.50" arrivalLane="t_n_0" arrivalPos="139.50" arrivalSpeed="6.90" duration="43.00" routeLength="294.90" waitingTime="0.00" waitingCount="0" stopTime="0.00" timeLoss="0.77" rerouteNo="0" devices="tripinfo_flow_sn.1" vType="DEFAULT_VEHTYPE@flow_sn.1" speedFactor="1.05" vaporized=""/>
    <tripinfo id="flow_ns.0" depart="0.00" departLane="n_t_0" departPos="5.10" departSpeed="14.73" departDelay="0.00" arrival="63.50" arrivalLane="t_s_0" arrivalPos="139.60" arrivalSpeed="6.94" duration="63.50" routeLength="294.90" waitingTime="7.00" waitingCount="7" stopTime="0.00" timeLoss="21.08" rerouteNo="0" devices="tripinfo_flow_ns.0" vType="DEFAULT_VEHTYPE@flow_ns.0" speedFactor="1.06" vaporized=""/>
    <tripinfo id="flow_we.1" depart="7.50" departLane="w_t_0" departPos="5.10" departSpeed="13.04" departDelay="0.30" arrival="70.00" arrivalLane="t_e_0" arrivalPos="139.60" arrivalSpeed="6.81" duration="62.50" routeLength="294.97" waitingTime="14.00" waitingCount="1" stopTime="0.00" timeLoss="19.95" rerouteNo="0" devices="tripinfo_flow_we.1" vType="DEFAULT_VEHTYPE@flow_we.1" speedFactor="0.94" vaporized=""/>
    <tripinfo id="flow_we.2" depart="14.50" departLane="w_t_0" departPos="5.10" departSpeed="15.61" departDelay="0.10" arrival="72.50" arrivalLane="t_e_0" arrivalPos="139.60" arrivalSpeed="6.95" duration="58.00" routeLength="294.97" waitingTime="7.50" waitingCount="1" stopTime="0.00" timeLoss="15.77" rerouteNo="0" devices="tripinfo_flow_we.2" vType="DEFAULT_VEHTYPE@flow_we.2" speedFactor="1.12" vaporized=""/>
    <tripinfo id="flow_we.3" depart="22.00" departLane="w_t_0" departPos="5.10" departSpeed="13.01" departDelay="0.40" arrival="75.50" arrivalLane="t_e_0" arrivalPos="139.60" arrivalSpeed="6.88" duration="53.50" routeLength="294.97" waitingTime="1.50" waitingCount="1" stopTime="0.00" timeLoss="11.28" rerouteNo="0" devices="tripinfo_flow_we.3" vType="DEFAULT_VEHTYPE@flow_we.3" speedFactor="0.94" vaporized=""/>
    <tripinfo id="flow_we.4" depart="29.00" departLane="w_t_0" departPos="5.10" departSpeed="12.37" departDelay="0.20" arrival="78.50" arrivalLane="t_e_0" arrivalPos="139.60" arrivalSpeed="6.81" duration="49.50" routeLength="294.97" waitingTime="0.00" waitingCount="0" stopTime="0.00" timeLoss="7.15" rerouteNo="0" devices="tripinfo_flow_we.4" vType="DEFAULT_VEHTYPE@flow_we.4" speedFactor="0.89" vaporized=""/>
    <tripinfo id="flow_we.5" depart="36.00" departLane="w_t_0" departPos="5.10" departSpeed="15.73" departDelay="0.00" arrival="81.00" arrivalLane="t_e_0" arrivalPos="139.60" arrivalSpeed="6.84" duration="45.00" routeLength="294.97" waitingTime="0.00" waitingCount="0" stopTime="0.00" timeLoss="2.48" rerouteNo="0" devices="tripinfo_flow_we.5" vType="DEFAULT_VEHTYPE@flow_we.5" speedFactor="1.13" vaporized=""/>
    <tripinfo id="flow_we.6" depart="43.50" departLane="w_t_0" departPos="5.10" departSpeed="16.29" departDelay="0.30" arrival="87.00" arrivalLane="t_e_0" arrivalPos="139.60" arrivalSpeed="6.91" duration="43.50" routeLength="294.97" waitingTime="0.00" waitingCount="0" stopTime="0.00" timeLoss="0.95" rerouteNo="0" devices="tripinfo_flow_we.6" vType="DEFAULT_VEHTYPE@flow_we.6" speedFactor="1.17" vaporized=""/>
    <tripinfo id="flow_ew.1" depart="7.50" departLane="e_t_0" departPos="5.10" departSpeed="12.32" departDelay="0.30" arrival="92.00" arrivalLane="t_w_0" arrivalPos="139.67" arrivalSpeed="6.78" duration="84.50" routeLength="294.97" waitingTime="31.50" waitingCount="3" stopTime="0.00" timeLoss="42.13" rerouteNo="0" devices="tripinfo_flow_ew.1" vType="DEFAULT_VEHTYPE@flow_ew.1" speedFactor="0.89" vaporized=""/>
    <tripinfo id="flow_ew.2" depart="14.50" departLane="e_t_0" departPos="5.10" departSpeed="14.55" departDelay="0.10" arrival="94.00" arrivalLane="t_w_1" arrivalPos="139.67" arrivalSpeed="6.85" duration="79.50" routeLength="294.97" waitingTime="26.00" waitingCount="1" stopTime="0.00" timeLoss="37.14" rerouteNo="0" devices="tripinfo_flow_ew.2" vType="DEFAULT_VEHTYPE@flow_ew.2" speedFactor="1.05" vaporized=""/>
    <tripinfo id="flow_ew.3" depart="22.00" departLane="e_t_0" departPos="5.10" departSpeed="13.09" departDelay="0.40" arrival="97.00" arrivalLane="t_w_0" arrivalPos="139.67" arrivalSpeed="6.87" duration="75.00" routeLength="294.97" waitingTime="22.00" waitingCount="1" stopTime="0.00" timeLoss="32.72" rerouteNo="0" devices="tripinfo_flow_ew.3" vType="DEFAULT_VEHTYPE@flow_ew.3" speedFactor="0.94" vaporized=""/>
    <tripinfo id="flow_ew.4" depart="29.00" departLane="e_t_0" departPos="5.10" departSpeed="13.55" departDelay="0.20" arrival="99.50" arrivalLane="t_w_0" arrivalPos="139.67" arrivalSpeed="6.95" duration="70.50" routeLength="294.97" waitingTime="17.50" waitingCount="1" stopTime="0.00" timeLoss="27.98" rerouteNo="0" devices="tripinfo_flow_ew.4" vType="DEFAULT_VEHTYPE@flow_ew.4" speedFactor="0.98" vaporized=""/>
    <tripinfo id="flow_ew.5" depart="36.00" departLane="e_t_0" departPos="5.10" departSpeed="13.19" departDelay="0.00" arrival="108.00" arrivalLane="t_w_0" arrivalPos="139.67" arrivalSpeed="6.86" duration="72.00" routeLength="294.97" waitingTime="13.00" waitingCount="2" stopTime="0.00" timeLoss="29.80" rerouteNo="0" devices="tripinfo_flow_ew.5" vType="DEFAULT_VEHTYPE@flow_ew.5" speedFactor="0.95" vaporized=""/>
    <tripinfo id="flow_ew.6" depart="43.50" departLane="e_t_0" departPos="5.10" departSpeed="13.97" departDelay="0.30" arrival="110.50" arrivalLane="t_w_0" arrivalPos="139.67" arrivalSpeed="6.99" duration="67.00" routeLength="294.97" waitingTime="7.00" waitingCount="1" stopTime="0.00" timeLoss="24.48" rerouteNo="0" devices="tripinfo_flow_ew.6" vType="DEFAULT_VEHTYPE@flow_ew.6" speedFactor="1.01" vaporized=""/>
    <tripinfo id="flow_ew.7" depart="50.50" departLane="e_t_0" departPos="5.10" departSpeed="16.40" departDelay="0.10" arrival="113.00" arrivalLane="t_w_0" arrivalPos="139.67" arrivalSpeed="6.94" duration="62.50" routeLength="294.97" waitingTime="2.00" waitingCount="1" stopTime="0.00" timeLoss="19.91" rerouteNo="0" devices="tripinfo_flow_ew.7" vType="DEFAULT_VEHTYPE@flow_ew.7" speedFactor="1.18" vaporized=""/>
    <tripinfo id="flow_ew.8" depart="58.00" departLane="e_t_0" departPos="5.10" departSpeed="15.18" departDelay="0.40" arrival="115.50" arrivalLane="t_w_0" arrivalPos="139.67" arrivalSpeed="6.99" duration="57.50" routeLength="294.97" waitingTime="0.00" waitingCount="0" stopTime="0.00" timeLoss="14.90" rerouteNo="0" devices="tripinfo_flow_ew.8" vType="DEFAULT_VEHTYPE@flow_ew.8" speedFactor="1.09" vaporized=""/>
    <tripinfo id="flow_ew.9" depart="65.00" departLane="e_t_0" departPos="5.10" departSpeed="12.52" departDelay="0.20" arrival="118.50" arrivalLane="t_w_0" arrivalPos="139.67" arrivalSpeed="6.94" duration="53.50" routeLength="294.97" waitingTime="0.00" waitingCount="0" stopTime="0.00" timeLoss="11.31" rerouteNo="0" devices="tripinfo_flow_ew.9" vType="DEFAULT_VEHTYPE@flow_ew.9" speedFactor="0.90" vaporized=""/>
    <tripinfo id="flow_ew.10" depart="72.00" departLane="e_t_0" departPos="5.10" departSpeed="14.13" departDelay="0.00" arrival="121.00" arrivalLane="t_w_0" arrivalPos="139.67" arrivalSpeed="6.92" duration="49.00" routeLength="294.97" waitingTime="0.00" waitingCount="0" stopTime="0.00" timeLoss="6.87" rerouteNo="0" devices="tripinfo_flow_ew.10" vType="DEFAULT_VEHTYPE@flow_ew.10" speedFactor="1.02" vaporized=""/>
    <tripinfo id="flow_ew.11" depart="79.50" departLane="e_t_0" departPos="5.10" departSpeed="15.88" departDelay="0.30" arrival="124.50" arrivalLane="t_w_0" arrivalPos="139.67" arrivalSpeed="6.99" duration="45.00" routeLength="294.97" waitingTime="0.00" waitingCount="0" stopTime="0.00" timeLoss="2.81" rerouteNo="0" devices="tripinfo_flow_ew.11" vType="DEFAULT_VEHTYPE@flow_ew.11" speedFactor="1.14" vaporized=""/>
    <tripinfo id="flow_sn.2" depart="14.50" departLane="s_t_0" departPos="5.10" departSpeed="14.27" departDelay="0.10" arrival="128.50" arrivalLane="t_n_0" arrivalPos="139.50" arrivalSpeed="6.77" duration="114.00" routeLength="294.90" waitingTime="55.00" waitingCount="7" stopTime="0.00" timeLoss="71.63" rerouteNo="0" devices="tripinfo_flow_sn.2" vType="DEFAULT_VEHTYPE@flow_sn.2" speedFactor="1.03" vaporized=""/>
    <tripinfo id="flow_ew.12" depart="86.50" departLane="e_t_0" departPos="5.10" departSpeed="14.12" departDelay="0.10" arrival="135.50" arrivalLane="t_w_0" arrivalPos="139.67" arrivalSpeed="6.97" duration="49.00" routeLength="294.97" waitingTime="0.50" waitingCount="1" stopTime="0.00" timeLoss="6.60" rerouteNo="0" devices="tripinfo_flow_ew.12" vType="DEFAULT_VEHTYPE@flow_ew.12" speedFactor="1.02" vaporized=""/>
    <tripinfo id="flow_sn.3" depart="22.00" departLane="s_t_0" departPos="5.10" departSpeed="12.21" departDelay="0.40" arrival="148.50" arrivalLane="t_n_0" arrivalPos="139.50" arrivalSpeed="6.79" duration="126.50" routeLength="294.90" waitingTime="53.00" waitingCount="10" stopTime="0.00" timeLoss="83.97" rerouteNo="0" devices="tripinfo_flow_sn.3" vType="DEFAULT_VEHTYPE@flow_sn.3" speedFactor="0.88" vaporized=""/>
    <tripinfo id="flow_sn.4" depart="29.00" departLane="s_t_0" departPos="5.10" departSpeed="14.04" departDelay="0.20" arrival="152.00" arrivalLane="t_n_0" arrivalPos="139.50" arrivalSpeed="6.96" duration="123.00" routeLength="294.90" waitingTime="42.00" waitingCount="10" stopTime="0.00" timeLoss="80.74" rerouteNo="0" devices="tripinfo_flow_sn.4" vType="DEFAULT_VEHTYPE@flow_sn.4" speedFactor="1.01" vaporized=""/>
    <tripinfo id="flow_sn.5" depart="36.00" departLane="s_t_0" departPos="5.10" departSpeed="12.75" departDelay="0.00" arrival="154.50" arrivalLane="t_n_0" arrivalPos="139.50" arrivalSpeed="6.91" duration="118.50" routeLength="294.90" waitingTime="34.00" waitingCount="6" stopTime="0.00" timeLoss="75.91" rerouteNo="0" devices="tripinfo_flow_sn.5" vType="DEFAULT_VEHTYPE@flow_sn.5" speedFactor="0.92" vaporized=""/>
    <tripinfo id="flow_sn.6" depart="43.50" departLane="s_t_0" departPos="5.10" departSpeed="16.05" departDelay="0.30" arrival="156.50" arrivalLane="t_n_0" arrivalPos="139.50" arrivalSpeed="6.80" duration="113.00" routeLength="294.90" waitingTime="25.50" waitingCount="5" stopTime="0.00" timeLoss="70.81" rerouteNo="0" devices="tripinfo_flow_sn.6" vType="DEFAULT_VEHTYPE@flow_sn.6" speedFactor="1.15" vaporized=""/>
    <tripinfo id="flow_sn.7" depart="50.50" departLane="s_t_0" departPos="5.10" departSpeed="13.53" departDelay="0.10" arrival="159.50" arrivalLane="t_n_0" arrivalPos="139.50" arrivalSpeed="6.92" duration="109.00" routeLength="294.90" waitingTime="21.50" waitingCount="3" stopTime="0.00" timeLoss="66.76" rerouteNo="0" devices="tripinfo_flow_sn.7" vType="DEFAULT_VEHTYPE@flow_sn.7" speedFactor="0.97" vaporized=""/>
    <tripinfo id="flow_sn.8" depart="58.00" departLane="s_t_0" departPos="5.10" departSpeed="13.30" departDelay="0.40" arrival="162.50" arrivalLane="t_n_0" arrivalPos="139.50" arrivalSpeed="6.99" duration="104.50" routeLength="294.90" waitingTime="19.50" waitingCount="3" stopTime="0.00" timeLoss="61.95" rerouteNo="0" devices="tripinfo_flow_sn.8" vType="DEFAULT_VEHTYPE@flow_sn.8" speedFactor="0.96" vaporized=""/>
    <tripinfo id="flow_sn.9" depart="65.00" departLane="s_t_0" departPos="5.10" departSpeed="13.86" departDelay="0.20" arrival="165.50" arrivalLane="t_n_0" arrivalPos="139.50" arrivalSpeed="6.82" duration="100.50" routeLength="294.90" waitingTime="18.00" waitingCount="3" stopTime="0.00" timeLoss="58.30" rerouteNo="0" devices="tripinfo_flow_sn.9" vType="DEFAULT_VEHTYPE@flow_sn.9" speedFactor="1.00" vaporized=""/>
</tripinfos>
