<?xml version="1.0" encoding="UTF-8"?>

<!-- generated on 07 أبر, 2021 11:08:39 م by Eclipse SUMO GUI Version v1_8_0+0922-7b2bbb9a60
<configuration xmlns:xsi="http://www.w3.org/2001/XMLSchema-instance" xsi:noNamespaceSchemaLocation="http://sumo.dlr.de/xsd/sumoConfiguration.xsd">

    <input>
        <net-file value="data/cross.net.xml"/>
        <route-files value="data/cross.rou.xml"/>
        <additional-files value="data/cross.det.xml"/>
    </input>

    <output>
        <tripinfo-output value="tripinfo.xml"/>
    </output>

    <time>
        <begin value="0"/>
    </time>

    <report>
        <verbose value="true"/>
        <no-step-log value="true"/>
    </report>

    <traci_server>
        <remote-port value="58191"/>
    </traci_server>

</configuration>
-->

<tripinfos xmlns:xsi="http://www.w3.org/2001/XMLSchema-instance" xsi:noNamespaceSchemaLocation="http://sumo.dlr.de/xsd/tripinfo_file.xsd">
    <tripinfo id="LH" depart="0.00" departLane="52o_0" departPos="7.10" departSpeed="0.00" departDelay="0.00" arrival="94.00" arrivalLane="51i_1" arrivalPos="10.00" arrivalSpeed="10.91" duration="94.00" routeLength="1013.10" waitingTime="0.00" waitingCount="0" stopTime="0.00" timeLoss="17.84" rerouteNo="0" devices="tripinfo_LH" vType="typeNS" speedFactor="0.94" vaporized=""/>
    <tripinfo id="D2" depart="20.00" departLane="51o_0" departPos="5.10" departSpeed="0.00" departDelay="20.00" arrival="121.00" arrivalLane="52i_1" arrivalPos="10.00" arrivalSpeed="11.99" duration="101.00" routeLength="1015.10" waitingTime="5.00" waitingCount="3" stopTime="0.00" timeLoss="28.61" rerouteNo="0" devices="tripinfo_D2" vType="typeWE" speedFactor="1.08" vaporized=""/>
    <tripinfo id="D1" depart="2.00" departLane="51o_0" departPos="7.10" departSpeed="0.00" departDelay="2.00" arrival="231.00" arrivalLane="52i_0" arrivalPos="10.00" arrivalSpeed="1.60" duration="229.00" routeLength="1013.10" waitingTime="65.00" waitingCount="19" stopTime="0.00" timeLoss="158.13" rerouteNo="0" devices="tripinfo_D1" vType="typeNS" speedFactor="1.01" vaporized=""/>
    <tripinfo id="agent" depart="0.00" departLane="51o_0" departPos="5.10" departSpeed="0.00" departDelay="0.00" arrival="333.00" arrivalLane="52i_0" arrivalPos="10.00" arrivalSpeed="2.40" duration="333.00" routeLength="1015.10" waitingTime="92.00" waitingCount="35" stopTime="0.00" timeLoss="259.65" rerouteNo="0" devices="tripinfo_agent" vType="typeWE" speedFactor="1.06" vaporized=""/>
</tripinfos>
